TITLE = "B00045"
VARIABLES = "x", "y", "Vx", "Vy", "isValid"
ZONE T="Frame 0", I=101, J=78, F=POINT
-37.9511736035 119.8914697766 0 -0 0
-36.2261175513 119.8914697766 0 -0 0
-34.5010614991 119.8914697766 0 -0 0
-32.7760054469 119.8914697766 0 -0 0
-31.0509493947 119.8914697766 0 -0 0
-29.3258933425 119.8914697766 0 -0 0
-27.6008372903 119.8914697766 0 -0 0
-25.8757812381 119.8914697766 0 -0 0
-24.1507251859 119.8914697766 0 -0 0
-22.4256691337 119.8914697766 0 -0 0
-20.7006130815 119.8914697766 0 -0 0
-18.9755570292 119.8914697766 0 -0 0
-17.250500977 119.8914697766 0 -0 0
-15.5254449248 119.8914697766 0 -0 0
-13.8003888726 119.8914697766 0 -0 0
-12.0753328204 119.8914697766 0 -0 0
-10.3502767682 119.8914697766 0 -0 0
-8.625220716 119.8914697766 0 -0 0
-6.9001646638 119.8914697766 0 -0 0
-5.1751086116 119.8914697766 0 -0 0
-3.4500525594 119.8914697766 0 -0 0
-1.7249965072 119.8914697766 0 -0 0
0.000059545 119.8914697766 0 -0 0
1.7251155972 119.8914697766 0 -0 0
3.4501716495 119.8914697766 0 -0 0
5.1752277017 119.8914697766 0 -0 0
6.9002837539 119.8914697766 0 -0 0
8.6253398061 119.8914697766 0 -0 0
10.3503958583 119.8914697766 0 -0 0
12.0754519105 119.8914697766 0 -0 0
13.8005079627 119.8914697766 0 -0 0
15.5255640149 119.8914697766 0 -0 0
17.2506200671 119.8914697766 0 -0 0
18.9756761193 119.8914697766 0 -0 0
20.7007321715 119.8914697766 0 -0 0
22.4257882237 119.8914697766 0 -0 0
24.150844276 119.8914697766 0 -0 0
25.8759003282 119.8914697766 0 -0 0
27.6009563804 119.8914697766 0 -0 0
29.3260124326 119.8914697766 0 -0 0
31.0510684848 119.8914697766 0 -0 0
32.776124537 119.8914697766 0 -0 0
34.5011805892 119.8914697766 0 -0 0
36.2262366414 119.8914697766 0 -0 0
37.9512926936 119.8914697766 0 -0 0
39.6763487458 119.8914697766 0 -0 0
41.401404798 119.8914697766 0 -0 0
43.1264608502 119.8914697766 0 -0 0
44.8515169024 119.8914697766 0 -0 0
46.5765729547 119.8914697766 0 -0 0
48.3016290069 119.8914697766 0 -0 0
50.0266850591 119.8914697766 0 -0 0
51.7517411113 119.8914697766 0 -0 0
53.4767971635 119.8914697766 0 -0 0
55.2018532157 119.8914697766 0 -0 0
56.9269092679 119.8914697766 0 -0 0
58.6519653201 119.8914697766 0 -0 0
60.3770213723 119.8914697766 0 -0 0
62.1020774245 119.8914697766 0 -0 0
63.8271334767 119.8914697766 0 -0 0
65.5521895289 119.8914697766 0 -0 0
67.2772455812 119.8914697766 0 -0 0
69.0023016334 119.8914697766 0 -0 0
70.7273576856 119.8914697766 0 -0 0
72.4524137378 119.8914697766 0 -0 0
74.17746979 119.8914697766 0 -0 0
75.9025258422 119.8914697766 0 -0 0
77.6275818944 119.8914697766 0 -0 0
79.3526379466 119.8914697766 0 -0 0
81.0776939988 119.8914697766 0 -0 0
82.802750051 119.8914697766 0 -0 0
84.5278061032 119.8914697766 0 -0 0
86.2528621554 119.8914697766 0 -0 0
87.9779182076 119.8914697766 0 -0 0
89.7029742599 119.8914697766 0 -0 0
91.4280303121 119.8914697766 0 -0 0
93.1530863643 119.8914697766 0 -0 0
94.8781424165 119.8914697766 0 -0 0
96.6031984687 119.8914697766 0 -0 0
98.3282545209 119.8914697766 0 -0 0
100.0533105731 119.8914697766 0 -0 0
101.7783666253 119.8914697766 0 -0 0
103.5034226775 119.8914697766 0 -0 0
105.2284787297 119.8914697766 0 -0 0
106.9535347819 119.8914697766 0 -0 0
108.6785908341 119.8914697766 0 -0 0
110.4036468863 119.8914697766 0 -0 0
112.1287029386 119.8914697766 0 -0 0
113.8537589908 119.8914697766 0 -0 0
115.578815043 119.8914697766 0 -0 0
117.3038710952 119.8914697766 0 -0 0
119.0289271474 119.8914697766 0 -0 0
120.7539831996 119.8914697766 0 -0 0
122.4790392518 119.8914697766 0 -0 0
124.204095304 119.8914697766 0 -0 0
125.9291513562 119.8914697766 0 -0 0
127.6542074084 119.8914697766 0 -0 0
129.3792634606 119.8914697766 0 -0 0
131.1043195128 119.8914697766 0 -0 0
132.8293755651 119.8914697766 0 -0 0
134.5544316173 119.8914697766 0 -0 0
-37.9511736035 118.1664137244 0 -0 0
-36.2261175513 118.1664137244 9.4881756903 0.456880172 1
-34.5010614991 118.1664137244 9.4297949654 0.6367850426 1
-32.7760054469 118.1664137244 9.5059871307 0.3997182256 1
-31.0509493947 118.1664137244 9.3422622647 0.3864364188 1
-29.3258933425 118.1664137244 9.5615464313 0.5291034242 1
-27.6008372903 118.1664137244 9.4750090436 0.2612408571 1
-25.8757812381 118.1664137244 0 -0 0
-24.1507251859 118.1664137244 0 -0 0
-22.4256691337 118.1664137244 0 -0 0
-20.7006130815 118.1664137244 0 -0 0
-18.9755570292 118.1664137244 0 -0 0
-17.250500977 118.1664137244 0 -0 0
-15.5254449248 118.1664137244 0 -0 0
-13.8003888726 118.1664137244 0 -0 0
-12.0753328204 118.1664137244 0 -0 0
-10.3502767682 118.1664137244 0 -0 0
-8.625220716 118.1664137244 0 -0 0
-6.9001646638 118.1664137244 0 -0 0
-5.1751086116 118.1664137244 0 -0 0
-3.4500525594 118.1664137244 0 -0 0
-1.7249965072 118.1664137244 9.3463394833 0.6655586349 1
0.000059545 118.1664137244 9.5368144128 0.7415245927 1
1.7251155972 118.1664137244 9.7583551704 0.6547678523 1
3.4501716495 118.1664137244 9.5277304685 0.6488987962 1
5.1752277017 118.1664137244 9.9569900209 0.6557261495 1
6.9002837539 118.1664137244 9.8148604297 0.8384222833 1
8.6253398061 118.1664137244 9.9473988235 0.775958856 1
10.3503958583 118.1664137244 9.8336863764 0.8216308331 1
12.0754519105 118.1664137244 9.7359757098 0.8508225665 1
13.8005079627 118.1664137244 9.8239334063 0.8263866741 1
15.5255640149 118.1664137244 10.1120312613 0.767741355 1
17.2506200671 118.1664137244 10.2247703308 0.9547765597 1
18.9756761193 118.1664137244 9.9653034888 0.8422225691 1
20.7007321715 118.1664137244 9.6388435859 0.6267263497 1
22.4257882237 118.1664137244 9.9303633433 0.8748745916 1
24.150844276 118.1664137244 10.0062319634 0.8937608603 1
25.8759003282 118.1664137244 10.2719366482 0.8415302371 1
27.6009563804 118.1664137244 10.2366592479 0.8893107421 1
29.3260124326 118.1664137244 10.1526389326 0.8314619475 1
31.0510684848 118.1664137244 9.9929803175 0.813141883 1
32.776124537 118.1664137244 10.1555289046 0.6931134487 1
34.5011805892 118.1664137244 10.0530336069 0.6851687676 1
36.2262366414 118.1664137244 10.3993531561 0.661368998 1
37.9512926936 118.1664137244 10.2517150698 0.7855486825 1
39.6763487458 118.1664137244 10.3349374896 0.8846645774 1
41.401404798 118.1664137244 10.5060847031 0.9049231716 1
43.1264608502 118.1664137244 10.4008886251 0.9345234494 1
44.8515169024 118.1664137244 10.4776456237 0.7622794724 1
46.5765729547 118.1664137244 10.4115875537 0.7042785018 1
48.3016290069 118.1664137244 10.5307591415 0.843279575 1
50.0266850591 118.1664137244 10.1220721318 0.6148484002 1
51.7517411113 118.1664137244 10.2407638855 0.6049144642 1
53.4767971635 118.1664137244 10.5513289423 0.7806653427 1
55.2018532157 118.1664137244 10.3141181751 0.7890967127 1
56.9269092679 118.1664137244 10.6339645936 0.8768638465 1
58.6519653201 118.1664137244 10.7041766556 0.8441323087 1
60.3770213723 118.1664137244 10.547394303 0.5987547657 1
62.1020774245 118.1664137244 10.4417019395 0.6095126454 1
63.8271334767 118.1664137244 10.5115383599 0.6377076949 1
65.5521895289 118.1664137244 10.5341152381 0.6858254547 1
67.2772455812 118.1664137244 10.1002629882 0.6353126375 1
69.0023016334 118.1664137244 10.8844462 0.5182824806 1
70.7273576856 118.1664137244 10.8353660302 0.5556355059 1
72.4524137378 118.1664137244 0 -0 0
74.17746979 118.1664137244 0 -0 0
75.9025258422 118.1664137244 0 -0 0
77.6275818944 118.1664137244 0 -0 0
79.3526379466 118.1664137244 0 -0 0
81.0776939988 118.1664137244 0 -0 0
82.802750051 118.1664137244 10.8726313145 0.4168455597 1
84.5278061032 118.1664137244 10.7931680518 0.2579217763 1
86.2528621554 118.1664137244 10.7945691672 0.4125640689 1
87.9779182076 118.1664137244 10.8280835201 0.555421637 1
89.7029742599 118.1664137244 10.9202308535 0.3102744144 1
91.4280303121 118.1664137244 10.7633470503 0.328502625 1
93.1530863643 118.1664137244 10.762392866 0.3127119715 1
94.8781424165 118.1664137244 10.7429088611 0.4219770423 1
96.6031984687 118.1664137244 10.8397722779 0.3077463744 1
98.3282545209 118.1664137244 10.87282599 0.2711679383 1
100.0533105731 118.1664137244 10.7845968445 0.5443045673 1
101.7783666253 118.1664137244 10.6930061186 0.3170729776 1
103.5034226775 118.1664137244 10.7109272354 0.2331678225 1
105.2284787297 118.1664137244 10.7137568854 0.1162514548 1
106.9535347819 118.1664137244 10.7705774641 0.0615202106 1
108.6785908341 118.1664137244 10.7908758159 -0.0842081361 1
110.4036468863 118.1664137244 10.791808065 -0.0703669798 1
112.1287029386 118.1664137244 10.7249740348 0.2289192346 1
113.8537589908 118.1664137244 10.7504655621 0.1910795204 1
115.578815043 118.1664137244 10.8047060046 0.1601960292 1
117.3038710952 118.1664137244 10.6706019807 -0.1780033567 1
119.0289271474 118.1664137244 10.7380090699 -0.0173658802 1
120.7539831996 118.1664137244 10.6994797656 -0.0823312994 1
122.4790392518 118.1664137244 10.6666426642 -0.1043131833 1
124.204095304 118.1664137244 10.6786851283 0.0315264689 1
125.9291513562 118.1664137244 10.6833271801 -0.1023115898 1
127.6542074084 118.1664137244 10.6917612919 -0.1034590787 1
129.3792634606 118.1664137244 10.6587240313 -0.0501371757 1
131.1043195128 118.1664137244 10.5712352011 0.1048972099 1
132.8293755651 118.1664137244 10.4855999015 0.0710346346 1
134.5544316173 118.1664137244 0 -0 0
-37.9511736035 116.4413576722 0 -0 0
-36.2261175513 116.4413576722 9.5879345628 0.5595139361 1
-34.5010614991 116.4413576722 9.500980405 0.4954272987 1
-32.7760054469 116.4413576722 9.5160718717 0.31299713 1
-31.0509493947 116.4413576722 9.4141907616 0.4119073818 1
-29.3258933425 116.4413576722 9.4912301768 0.6071381523 1
-27.6008372903 116.4413576722 9.3507018604 0.1779375509 1
-25.8757812381 116.4413576722 0 -0 0
-24.1507251859 116.4413576722 0 -0 0
-22.4256691337 116.4413576722 0 -0 0
-20.7006130815 116.4413576722 0 -0 0
-18.9755570292 116.4413576722 0 -0 0
-17.250500977 116.4413576722 0 -0 0
-15.5254449248 116.4413576722 0 -0 0
-13.8003888726 116.4413576722 0 -0 0
-12.0753328204 116.4413576722 0 -0 0
-10.3502767682 116.4413576722 0 -0 0
-8.625220716 116.4413576722 0 -0 0
-6.9001646638 116.4413576722 0 -0 0
-5.1751086116 116.4413576722 0 -0 0
-3.4500525594 116.4413576722 0 -0 0
-1.7249965072 116.4413576722 9.658472912 0.5538285879 1
0.000059545 116.4413576722 9.5255424252 0.778156496 1
1.7251155972 116.4413576722 9.7618730396 0.7497585452 1
3.4501716495 116.4413576722 9.6677652413 0.6871648773 1
5.1752277017 116.4413576722 9.8459454512 0.7261356289 1
6.9002837539 116.4413576722 9.932721385 0.8517493317 1
8.6253398061 116.4413576722 9.8109257903 0.9114968982 1
10.3503958583 116.4413576722 9.7882063329 0.8163567712 1
12.0754519105 116.4413576722 9.5981838184 0.8378368858 1
13.8005079627 116.4413576722 9.8330228344 0.795859631 1
15.5255640149 116.4413576722 10.0059577725 0.6821718611 1
17.2506200671 116.4413576722 9.8997855749 0.7169022505 1
18.9756761193 116.4413576722 9.9739761467 0.8398151731 1
20.7007321715 116.4413576722 9.8703319892 0.7522427147 1
22.4257882237 116.4413576722 10.1327902538 0.7440389232 1
24.150844276 116.4413576722 10.1600859572 0.8771311826 1
25.8759003282 116.4413576722 10.1238516307 0.8818925075 1
27.6009563804 116.4413576722 10.228074331 0.9780210927 1
29.3260124326 116.4413576722 10.09454885 0.9378795459 1
31.0510684848 116.4413576722 10.2526363512 0.8558717918 1
32.776124537 116.4413576722 10.3669958888 0.7433068335 1
34.5011805892 116.4413576722 10.0950615869 0.8194194835 1
36.2262366414 116.4413576722 10.2205148881 0.8472594558 1
37.9512926936 116.4413576722 10.1151789728 0.857070006 1
39.6763487458 116.4413576722 10.3003537923 0.8709975324 1
41.401404798 116.4413576722 10.5193719937 0.8467261545 1
43.1264608502 116.4413576722 10.4228513156 0.8888775205 1
44.8515169024 116.4413576722 10.4749530691 0.7494500805 1
46.5765729547 116.4413576722 10.6936175643 0.6749400763 1
48.3016290069 116.4413576722 10.5833955672 0.8704902792 1
50.0266850591 116.4413576722 10.3590059662 0.6161864518 1
51.7517411113 116.4413576722 10.2654849364 0.7408651636 1
53.4767971635 116.4413576722 10.4927151551 0.7902716206 1
55.2018532157 116.4413576722 10.4430317653 0.728992698 1
56.9269092679 116.4413576722 10.5991450921 0.6657423428 1
58.6519653201 116.4413576722 10.58927422 0.8559896938 1
60.3770213723 116.4413576722 10.6033813414 0.7111497256 1
62.1020774245 116.4413576722 10.2911080754 0.62629587 1
63.8271334767 116.4413576722 10.5192239307 0.6137763138 1
65.5521895289 116.4413576722 10.5683808739 0.6968904282 1
67.2772455812 116.4413576722 10.7356181253 0.6348122391 1
69.0023016334 116.4413576722 10.506537118 0.7519726367 1
70.7273576856 116.4413576722 10.6585266138 0.5696192415 1
72.4524137378 116.4413576722 0 -0 0
74.17746979 116.4413576722 0 -0 0
75.9025258422 116.4413576722 0 -0 0
77.6275818944 116.4413576722 0 -0 0
79.3526379466 116.4413576722 0 -0 0
81.0776939988 116.4413576722 0 -0 0
82.802750051 116.4413576722 10.9437427225 0.4306072007 1
84.5278061032 116.4413576722 10.82519629 0.2824646031 1
86.2528621554 116.4413576722 10.8422399959 0.5111727107 1
87.9779182076 116.4413576722 10.8173297533 0.4096754679 1
89.7029742599 116.4413576722 10.8050734204 0.3348350637 1
91.4280303121 116.4413576722 10.8560701845 0.3703071395 1
93.1530863643 116.4413576722 10.8369097249 0.3327539548 1
94.8781424165 116.4413576722 10.7044097178 0.2053758336 1
96.6031984687 116.4413576722 10.8811284902 0.2327880681 1
98.3282545209 116.4413576722 10.8808268803 0.1496273412 1
100.0533105731 116.4413576722 10.8808159126 0.2243416176 1
101.7783666253 116.4413576722 10.8231069554 0.0836597543 1
103.5034226775 116.4413576722 10.8675176543 -0.0292506845 1
105.2284787297 116.4413576722 10.6538187562 0.1175031362 1
106.9535347819 116.4413576722 10.7011907168 0.0708536686 1
108.6785908341 116.4413576722 10.7399777605 0.1924957164 1
110.4036468863 116.4413576722 10.817941199 0.25564325 1
112.1287029386 116.4413576722 10.7395472808 0.180854942 1
113.8537589908 116.4413576722 10.5886956772 0.0925229749 1
115.578815043 116.4413576722 10.6805523682 0.119528036 1
117.3038710952 116.4413576722 10.6914267791 -0.1893342954 1
119.0289271474 116.4413576722 10.6730998598 0.0303049484 1
120.7539831996 116.4413576722 10.7997157303 -0.042632571 1
122.4790392518 116.4413576722 10.666288958 -0.0833101609 1
124.204095304 116.4413576722 10.6350476477 -0.0889955091 1
125.9291513562 116.4413576722 10.613751241 -0.1053249477 1
127.6542074084 116.4413576722 10.707354528 -0.0349565969 1
129.3792634606 116.4413576722 10.5935049855 -0.1022923964 1
131.1043195128 116.4413576722 10.5335860496 -0.0996272609 1
132.8293755651 116.4413576722 10.6257525764 -0.070088676 1
134.5544316173 116.4413576722 0 -0 0
-37.9511736035 114.71630162 0 -0 0
-36.2261175513 114.71630162 9.8571324396 0.7705243925 1
-34.5010614991 114.71630162 9.3154518792 0.2777087621 1
-32.7760054469 114.71630162 9.461628528 0.6118528647 1
-31.0509493947 114.71630162 9.5509516952 0.5575616969 1
-29.3258933425 114.71630162 9.4209660186 0.5404549271 1
-27.6008372903 114.71630162 9.5259537115 0.4003461228 1
-25.8757812381 114.71630162 0 -0 0
-24.1507251859 114.71630162 0 -0 0
-22.4256691337 114.71630162 0 -0 0
-20.7006130815 114.71630162 0 -0 0
-18.9755570292 114.71630162 0 -0 0
-17.250500977 114.71630162 0 -0 0
-15.5254449248 114.71630162 0 -0 0
-13.8003888726 114.71630162 0 -0 0
-12.0753328204 114.71630162 0 -0 0
-10.3502767682 114.71630162 0 -0 0
-8.625220716 114.71630162 0 -0 0
-6.9001646638 114.71630162 0 -0 0
-5.1751086116 114.71630162 0 -0 0
-3.4500525594 114.71630162 0 -0 0
-1.7249965072 114.71630162 9.5198666737 0.6786992334 1
0.000059545 114.71630162 9.7119538456 0.7540674551 1
1.7251155972 114.71630162 9.7068977656 0.6838828123 1
3.4501716495 114.71630162 9.7743761443 0.713696959 1
5.1752277017 114.71630162 9.7742088879 0.8587823281 1
6.9002837539 114.71630162 9.7087622636 0.9288682622 1
8.6253398061 114.71630162 9.7860484506 0.9814471079 1
10.3503958583 114.71630162 9.8609272416 0.9470320379 1
12.0754519105 114.71630162 9.6663942869 0.8021262639 1
13.8005079627 114.71630162 10.1058784177 0.7096745786 1
15.5255640149 114.71630162 9.9037613429 0.8007484546 1
17.2506200671 114.71630162 9.6860921606 0.8146869487 1
18.9756761193 114.71630162 9.9299383474 0.91361091 1
20.7007321715 114.71630162 9.6332912204 0.8060924352 1
22.4257882237 114.71630162 10.0900109907 0.8285596369 1
24.150844276 114.71630162 10.2166021841 0.9276261775 1
25.8759003282 114.71630162 10.1912011397 0.8620712479 1
27.6009563804 114.71630162 10.3090675789 0.8800334932 1
29.3260124326 114.71630162 10.3463465727 0.9960943854 1
31.0510684848 114.71630162 10.4193553817 0.7634667189 1
32.776124537 114.71630162 10.404954876 0.7586834588 1
34.5011805892 114.71630162 10.1376598841 0.8754490215 1
36.2262366414 114.71630162 10.2021578078 0.9262154653 1
37.9512926936 114.71630162 10.2009541098 0.8558896142 1
39.6763487458 114.71630162 10.3951141649 0.8093388553 1
41.401404798 114.71630162 10.5181820053 0.8170806352 1
43.1264608502 114.71630162 10.4343015273 0.914966784 1
44.8515169024 114.71630162 10.3413069441 0.7806516332 1
46.5765729547 114.71630162 10.5687428059 0.7254295873 1
48.3016290069 114.71630162 10.5276333654 0.8360724674 1
50.0266850591 114.71630162 10.3920761298 0.8394436444 1
51.7517411113 114.71630162 10.5264680541 0.8693194841 1
53.4767971635 114.71630162 10.5469062432 0.8569671844 1
55.2018532157 114.71630162 10.5771796597 0.8013845775 1
56.9269092679 114.71630162 10.7893622822 0.5130509183 1
58.6519653201 114.71630162 10.5565988913 0.8136792972 1
60.3770213723 114.71630162 10.318697163 0.8406487134 1
62.1020774245 114.71630162 10.5349761975 0.5725448583 1
63.8271334767 114.71630162 10.8474825258 0.7220159107 1
65.5521895289 114.71630162 10.6676928154 0.7411311288 1
67.2772455812 114.71630162 10.7450146472 0.8366948807 1
69.0023016334 114.71630162 10.5336271783 0.8304638927 1
70.7273576856 114.71630162 10.8055258353 0.4507821666 1
72.4524137378 114.71630162 0 -0 0
74.17746979 114.71630162 0 -0 0
75.9025258422 114.71630162 0 -0 0
77.6275818944 114.71630162 0 -0 0
79.3526379466 114.71630162 0 -0 0
81.0776939988 114.71630162 0 -0 0
82.802750051 114.71630162 10.8561222808 0.4377142286 1
84.5278061032 114.71630162 10.7537311757 0.3111271481 1
86.2528621554 114.71630162 10.768863771 0.3523586036 1
87.9779182076 114.71630162 10.8036503696 0.4658708914 1
89.7029742599 114.71630162 10.6400872763 0.334374423 1
91.4280303121 114.71630162 10.8806788172 0.4339207976 1
93.1530863643 114.71630162 10.978471741 0.2785327057 1
94.8781424165 114.71630162 10.7794585071 0.2254685422 1
96.6031984687 114.71630162 10.9384206773 0.2127556815 1
98.3282545209 114.71630162 10.9177823288 0.2501443516 1
100.0533105731 114.71630162 10.8457962518 0.3346623234 1
101.7783666253 114.71630162 10.8733771137 0.2194404554 1
103.5034226775 114.71630162 11.0324270249 -0.0088385434 1
105.2284787297 114.71630162 10.8057040594 0.2974230873 1
106.9535347819 114.71630162 10.7966365666 0.1699448864 1
108.6785908341 114.71630162 10.7716495505 0.1167710465 1
110.4036468863 114.71630162 10.8660397654 0.3288289122 1
112.1287029386 114.71630162 10.8241022683 0.0243083936 1
113.8537589908 114.71630162 10.6306496257 0.0538977038 1
115.578815043 114.71630162 10.6909908155 0.1455350421 1
117.3038710952 114.71630162 10.7569967892 -0.0606921541 1
119.0289271474 114.71630162 10.7186676443 0.0011995852 1
120.7539831996 114.71630162 10.7328021848 0.1267584498 1
122.4790392518 114.71630162 10.7198302137 -0.0563530833 1
124.204095304 114.71630162 10.7556834148 -0.1711101977 1
125.9291513562 114.71630162 10.6619485162 -0.036941739 1
127.6542074084 114.71630162 10.741436456 0.197564135 1
129.3792634606 114.71630162 10.5187660319 -0.1061488913 1
131.1043195128 114.71630162 10.5131725377 -0.1097572435 1
132.8293755651 114.71630162 10.6010534607 -0.1186081255 1
134.5544316173 114.71630162 0 -0 0
-37.9511736035 112.9912455678 0 -0 0
-36.2261175513 112.9912455678 9.3592538743 0.0787352859 1
-34.5010614991 112.9912455678 9.3840407311 -0.2722647019 1
-32.7760054469 112.9912455678 9.3261480659 0.2232009835 1
-31.0509493947 112.9912455678 9.5806794718 0.4473890543 1
-29.3258933425 112.9912455678 9.4605509578 0.4451064151 1
-27.6008372903 112.9912455678 9.5874602126 0.4328788722 1
-25.8757812381 112.9912455678 0 -0 0
-24.1507251859 112.9912455678 0 -0 0
-22.4256691337 112.9912455678 0 -0 0
-20.7006130815 112.9912455678 0 -0 0
-18.9755570292 112.9912455678 0 -0 0
-17.250500977 112.9912455678 0 -0 0
-15.5254449248 112.9912455678 0 -0 0
-13.8003888726 112.9912455678 0 -0 0
-12.0753328204 112.9912455678 0 -0 0
-10.3502767682 112.9912455678 0 -0 0
-8.625220716 112.9912455678 0 -0 0
-6.9001646638 112.9912455678 0 -0 0
-5.1751086116 112.9912455678 0 -0 0
-3.4500525594 112.9912455678 0 -0 0
-1.7249965072 112.9912455678 9.4501015429 0.8088850694 1
0.000059545 112.9912455678 10.1407006611 0.8779564972 1
1.7251155972 112.9912455678 9.7617661051 0.8819802486 1
3.4501716495 112.9912455678 10.0250140395 0.8020111037 1
5.1752277017 112.9912455678 9.9183428145 0.8058319538 1
6.9002837539 112.9912455678 9.9541494033 0.8800238966 1
8.6253398061 112.9912455678 10.0201005387 0.9214349471 1
10.3503958583 112.9912455678 9.9851823285 0.851619091 1
12.0754519105 112.9912455678 9.7503789574 0.9326822576 1
13.8005079627 112.9912455678 9.698274462 0.7622356018 1
15.5255640149 112.9912455678 10.1984397793 0.7778727085 1
17.2506200671 112.9912455678 9.6754179091 0.8934948951 1
18.9756761193 112.9912455678 9.8503352474 0.8395300145 1
20.7007321715 112.9912455678 9.6723277778 0.8453469743 1
22.4257882237 112.9912455678 9.941783394 0.9606332772 1
24.150844276 112.9912455678 10.1129059303 1.1076489501 1
25.8759003282 112.9912455678 10.3836913723 0.8828521756 1
27.6009563804 112.9912455678 10.0269388596 0.7812850141 1
29.3260124326 112.9912455678 10.330890432 0.8634175251 1
31.0510684848 112.9912455678 10.3842781408 0.6481653356 1
32.776124537 112.9912455678 10.3280333629 0.9148968653 1
34.5011805892 112.9912455678 10.3658388033 0.9352939258 1
36.2262366414 112.9912455678 10.3041485943 0.9857409372 1
37.9512926936 112.9912455678 10.3617259399 0.8372226982 1
39.6763487458 112.9912455678 10.4759401563 0.8239271818 1
41.401404798 112.9912455678 10.5335915335 0.8948288338 1
43.1264608502 112.9912455678 10.4111625579 0.9594213534 1
44.8515169024 112.9912455678 10.250626532 0.8552384108 1
46.5765729547 112.9912455678 10.4993505747 0.8260562741 1
48.3016290069 112.9912455678 10.4033206983 0.8877643055 1
50.0266850591 112.9912455678 10.4113846525 0.7623576168 1
51.7517411113 112.9912455678 10.6107186897 0.8225575983 1
53.4767971635 112.9912455678 10.4933403104 0.8277425481 1
55.2018532157 112.9912455678 10.6622117394 0.7326298402 1
56.9269092679 112.9912455678 10.7108532038 0.6878243064 1
58.6519653201 112.9912455678 10.5928387016 0.7094497421 1
60.3770213723 112.9912455678 10.5276635263 0.6869112507 1
62.1020774245 112.9912455678 10.7543947176 0.7315138832 1
63.8271334767 112.9912455678 10.760525626 0.7577183069 1
65.5521895289 112.9912455678 10.7167729852 0.7376050339 1
67.2772455812 112.9912455678 10.6095780556 0.6856787626 1
69.0023016334 112.9912455678 10.7432707931 0.7713894648 1
70.7273576856 112.9912455678 10.7877774588 0.5692641643 1
72.4524137378 112.9912455678 10.7523410278 0.2153810593 1
74.17746979 112.9912455678 0 -0 0
75.9025258422 112.9912455678 0 -0 0
77.6275818944 112.9912455678 0 -0 0
79.3526379466 112.9912455678 0 -0 0
81.0776939988 112.9912455678 0 -0 0
82.802750051 112.9912455678 10.9208313315 0.4001062057 1
84.5278061032 112.9912455678 10.788013263 0.3697656125 1
86.2528621554 112.9912455678 10.8194081202 0.4496771773 1
87.9779182076 112.9912455678 10.8556753496 0.4819974288 1
89.7029742599 112.9912455678 10.7356482863 0.4384024477 1
91.4280303121 112.9912455678 10.8430269238 0.4435065112 1
93.1530863643 112.9912455678 11.0009142656 0.3046096306 1
94.8781424165 112.9912455678 10.8408416223 0.1370337535 1
96.6031984687 112.9912455678 10.9335263699 0.1529998892 1
98.3282545209 112.9912455678 10.8849644208 0.1667903202 1
100.0533105731 112.9912455678 10.9019450628 0.1243579085 1
101.7783666253 112.9912455678 10.9213495523 0.2307700231 1
103.5034226775 112.9912455678 10.8250646784 0.0574018634 1
105.2284787297 112.9912455678 10.7786660955 0.2329333893 1
106.9535347819 112.9912455678 10.8849918399 0.1146707443 1
108.6785908341 112.9912455678 10.8027400559 0.0962039876 1
110.4036468863 112.9912455678 10.9085777405 0.0844384564 1
112.1287029386 112.9912455678 10.9085558053 0.087251655 1
113.8537589908 112.9912455678 10.8378447159 0.0968428524 1
115.578815043 112.9912455678 10.784942325 -0.427074251 1
117.3038710952 112.9912455678 10.8542522989 -0.2421201551 1
119.0289271474 112.9912455678 10.7461689908 0.1451689973 1
120.7539831996 112.9912455678 10.7484749362 0.1330072602 1
122.4790392518 112.9912455678 10.7123475442 -0.0536358515 1
124.204095304 112.9912455678 10.7313462312 -0.0649859835 1
125.9291513562 112.9912455678 10.6359497357 0.0327383926 1
127.6542074084 112.9912455678 10.7216919698 0.0998603232 1
129.3792634606 112.9912455678 10.6177873309 -0.0444463437 1
131.1043195128 112.9912455678 10.6195448946 -0.1681640165 1
132.8293755651 112.9912455678 10.6287494828 -0.1513684534 1
134.5544316173 112.9912455678 0 -0 0
-37.9511736035 111.2661895156 0 -0 0
-36.2261175513 111.2661895156 9.6156662298 0.5489123452 1
-34.5010614991 111.2661895156 9.609335162 0.4157501671 1
-32.7760054469 111.2661895156 9.3538111851 -0.0895151008 1
-31.0509493947 111.2661895156 9.6020416843 0.2893276012 1
-29.3258933425 111.2661895156 9.5894535804 0.4224047801 1
-27.6008372903 111.2661895156 9.552824419 0.4940165866 1
-25.8757812381 111.2661895156 0 -0 0
-24.1507251859 111.2661895156 0 -0 0
-22.4256691337 111.2661895156 0 -0 0
-20.7006130815 111.2661895156 0 -0 0
-18.9755570292 111.2661895156 0 -0 0
-17.250500977 111.2661895156 0 -0 0
-15.5254449248 111.2661895156 0 -0 0
-13.8003888726 111.2661895156 0 -0 0
-12.0753328204 111.2661895156 0 -0 0
-10.3502767682 111.2661895156 0 -0 0
-8.625220716 111.2661895156 0 -0 0
-6.9001646638 111.2661895156 0 -0 0
-5.1751086116 111.2661895156 0 -0 0
-3.4500525594 111.2661895156 0 -0 0
-1.7249965072 111.2661895156 9.4538853772 0.8356159395 1
0.000059545 111.2661895156 9.9793749654 0.7480846098 1
1.7251155972 111.2661895156 9.7426659675 0.9286064099 1
3.4501716495 111.2661895156 9.7546673029 0.9329591904 1
5.1752277017 111.2661895156 9.7773620831 0.8438060215 1
6.9002837539 111.2661895156 9.7874550499 0.7650817033 1
8.6253398061 111.2661895156 9.8671184719 0.8392791299 1
10.3503958583 111.2661895156 9.7533045742 0.8317388803 1
12.0754519105 111.2661895156 9.8909950149 0.7632309148 1
13.8005079627 111.2661895156 9.8758624195 0.9802447808 1
15.5255640149 111.2661895156 9.9190282918 0.785022236 1
17.2506200671 111.2661895156 9.943828858 0.7691753733 1
18.9756761193 111.2661895156 10.0544429481 0.779061326 1
20.7007321715 111.2661895156 9.9379227862 0.9545311589 1
22.4257882237 111.2661895156 9.9615086868 0.9994244338 1
24.150844276 111.2661895156 10.0492278373 1.1798694604 1
25.8759003282 111.2661895156 10.0743821098 0.8723150196 1
27.6009563804 111.2661895156 9.9241775968 0.7956101173 1
29.3260124326 111.2661895156 10.1438017601 0.8159016143 1
31.0510684848 111.2661895156 10.3057389014 0.7155765376 1
32.776124537 111.2661895156 10.3718216485 0.8587384575 1
34.5011805892 111.2661895156 10.3307231756 0.904366564 1
36.2262366414 111.2661895156 10.3980151045 0.9074265344 1
37.9512926936 111.2661895156 10.2829371868 0.8707795506 1
39.6763487458 111.2661895156 10.5526560262 0.8759398232 1
41.401404798 111.2661895156 10.5231366347 0.9604852141 1
43.1264608502 111.2661895156 10.4277236878 0.8730498512 1
44.8515169024 111.2661895156 10.398363327 0.8360450483 1
46.5765729547 111.2661895156 10.5405340469 0.7558976793 1
48.3016290069 111.2661895156 10.4726005112 0.810282072 1
50.0266850591 111.2661895156 10.4604620804 0.8025334374 1
51.7517411113 111.2661895156 10.524784522 0.8314866247 1
53.4767971635 111.2661895156 10.4200847295 0.8774684374 1
55.2018532157 111.2661895156 10.5889753519 0.7840749065 1
56.9269092679 111.2661895156 10.5388176119 0.8454731021 1
58.6519653201 111.2661895156 10.5596424102 0.7605479569 1
60.3770213723 111.2661895156 10.747849781 0.6689997306 1
62.1020774245 111.2661895156 10.7349353899 0.9329345132 1
63.8271334767 111.2661895156 10.7022436098 1.0076940311 1
65.5521895289 111.2661895156 10.7775446547 0.72408331 1
67.2772455812 111.2661895156 10.7015553906 0.6186061864 1
69.0023016334 111.2661895156 10.665145582 0.6680825621 1
70.7273576856 111.2661895156 10.8141683323 0.6817783972 1
72.4524137378 111.2661895156 10.7457522207 0.7180058689 1
74.17746979 111.2661895156 0 -0 0
75.9025258422 111.2661895156 0 -0 0
77.6275818944 111.2661895156 0 -0 0
79.3526379466 111.2661895156 0 -0 0
81.0776939988 111.2661895156 0 -0 0
82.802750051 111.2661895156 10.8827736356 0.4436847353 1
84.5278061032 111.2661895156 10.8431338582 0.4982706583 1
86.2528621554 111.2661895156 10.9978296181 0.3209130211 1
87.9779182076 111.2661895156 10.9213166494 0.2528848896 1
89.7029742599 111.2661895156 10.7659683152 0.2374452004 1
91.4280303121 111.2661895156 10.9086435463 0.3982430786 1
93.1530863643 111.2661895156 10.9938401406 0.3503419296 1
94.8781424165 111.2661895156 10.8646249404 0.1765021616 1
96.6031984687 111.2661895156 10.9044950381 0.1690661046 1
98.3282545209 111.2661895156 10.9080458102 0.0541074599 1
100.0533105731 111.2661895156 10.8459141539 0.2951719801 1
101.7783666253 111.2661895156 10.8889456726 0.1325699258 1
103.5034226775 111.2661895156 10.7948625515 0.1296018094 1
105.2284787297 111.2661895156 10.7106201416 0.113595916 1
106.9535347819 111.2661895156 10.80454149 -0.116457098 1
108.6785908341 111.2661895156 10.8270361109 0.1856094121 1
110.4036468863 111.2661895156 10.9838595921 -0.0171766885 1
112.1287029386 111.2661895156 10.8473097855 -0.0963602765 1
113.8537589908 111.2661895156 10.8330299238 0.0278166661 1
115.578815043 111.2661895156 10.8304141427 -0.293488448 1
117.3038710952 111.2661895156 10.7740624304 -0.2937804613 1
119.0289271474 111.2661895156 10.6692831225 0.0906762992 1
120.7539831996 111.2661895156 10.7718360003 0.078248597 1