TITLE = "B00014"
VARIABLES = "x", "y", "Vx", "Vy", "isValid"
ZONE T="Frame 0", I=101, J=78, F=POINT
-37.9511736035 119.8914697766 0 -0 0
-36.2261175513 119.8914697766 0 -0 0
-34.5010614991 119.8914697766 0 -0 0
-32.7760054469 119.8914697766 0 -0 0
-31.0509493947 119.8914697766 0 -0 0
-29.3258933425 119.8914697766 0 -0 0
-27.6008372903 119.8914697766 0 -0 0
-25.8757812381 119.8914697766 0 -0 0
-24.1507251859 119.8914697766 0 -0 0
-22.4256691337 119.8914697766 0 -0 0
-20.7006130815 119.8914697766 0 -0 0
-18.9755570292 119.8914697766 0 -0 0
-17.250500977 119.8914697766 0 -0 0
-15.5254449248 119.8914697766 0 -0 0
-13.8003888726 119.8914697766 0 -0 0
-12.0753328204 119.8914697766 0 -0 0
-10.3502767682 119.8914697766 0 -0 0
-8.625220716 119.8914697766 0 -0 0
-6.9001646638 119.8914697766 0 -0 0
-5.1751086116 119.8914697766 0 -0 0
-3.4500525594 119.8914697766 0 -0 0
-1.7249965072 119.8914697766 0 -0 0
0.000059545 119.8914697766 0 -0 0
1.7251155972 119.8914697766 0 -0 0
3.4501716495 119.8914697766 0 -0 0
5.1752277017 119.8914697766 0 -0 0
6.9002837539 119.8914697766 0 -0 0
8.6253398061 119.8914697766 0 -0 0
10.3503958583 119.8914697766 0 -0 0
12.0754519105 119.8914697766 0 -0 0
13.8005079627 119.8914697766 0 -0 0
15.5255640149 119.8914697766 0 -0 0
17.2506200671 119.8914697766 0 -0 0
18.9756761193 119.8914697766 0 -0 0
20.7007321715 119.8914697766 0 -0 0
22.4257882237 119.8914697766 0 -0 0
24.150844276 119.8914697766 0 -0 0
25.8759003282 119.8914697766 0 -0 0
27.6009563804 119.8914697766 0 -0 0
29.3260124326 119.8914697766 0 -0 0
31.0510684848 119.8914697766 0 -0 0
32.776124537 119.8914697766 0 -0 0
34.5011805892 119.8914697766 0 -0 0
36.2262366414 119.8914697766 0 -0 0
37.9512926936 119.8914697766 0 -0 0
39.6763487458 119.8914697766 0 -0 0
41.401404798 119.8914697766 0 -0 0
43.1264608502 119.8914697766 0 -0 0
44.8515169024 119.8914697766 0 -0 0
46.5765729547 119.8914697766 0 -0 0
48.3016290069 119.8914697766 0 -0 0
50.0266850591 119.8914697766 0 -0 0
51.7517411113 119.8914697766 0 -0 0
53.4767971635 119.8914697766 0 -0 0
55.2018532157 119.8914697766 0 -0 0
56.9269092679 119.8914697766 0 -0 0
58.6519653201 119.8914697766 0 -0 0
60.3770213723 119.8914697766 0 -0 0
62.1020774245 119.8914697766 0 -0 0
63.8271334767 119.8914697766 0 -0 0
65.5521895289 119.8914697766 0 -0 0
67.2772455812 119.8914697766 0 -0 0
69.0023016334 119.8914697766 0 -0 0
70.7273576856 119.8914697766 0 -0 0
72.4524137378 119.8914697766 0 -0 0
74.17746979 119.8914697766 0 -0 0
75.9025258422 119.8914697766 0 -0 0
77.6275818944 119.8914697766 0 -0 0
79.3526379466 119.8914697766 0 -0 0
81.0776939988 119.8914697766 0 -0 0
82.802750051 119.8914697766 0 -0 0
84.5278061032 119.8914697766 0 -0 0
86.2528621554 119.8914697766 0 -0 0
87.9779182076 119.8914697766 0 -0 0
89.7029742599 119.8914697766 0 -0 0
91.4280303121 119.8914697766 0 -0 0
93.1530863643 119.8914697766 0 -0 0
94.8781424165 119.8914697766 0 -0 0
96.6031984687 119.8914697766 0 -0 0
98.3282545209 119.8914697766 0 -0 0
100.0533105731 119.8914697766 0 -0 0
101.7783666253 119.8914697766 0 -0 0
103.5034226775 119.8914697766 0 -0 0
105.2284787297 119.8914697766 0 -0 0
106.9535347819 119.8914697766 0 -0 0
108.6785908341 119.8914697766 0 -0 0
110.4036468863 119.8914697766 0 -0 0
112.1287029386 119.8914697766 0 -0 0
113.8537589908 119.8914697766 0 -0 0
115.578815043 119.8914697766 0 -0 0
117.3038710952 119.8914697766 0 -0 0
119.0289271474 119.8914697766 0 -0 0
120.7539831996 119.8914697766 0 -0 0
122.4790392518 119.8914697766 0 -0 0
124.204095304 119.8914697766 0 -0 0
125.9291513562 119.8914697766 0 -0 0
127.6542074084 119.8914697766 0 -0 0
129.3792634606 119.8914697766 0 -0 0
131.1043195128 119.8914697766 0 -0 0
132.8293755651 119.8914697766 0 -0 0
134.5544316173 119.8914697766 0 -0 0
-37.9511736035 118.1664137244 0 -0 0
-36.2261175513 118.1664137244 9.4156302638 0.464376551 1
-34.5010614991 118.1664137244 9.7366447355 0.73688117 1
-32.7760054469 118.1664137244 9.6393864839 0.6049446251 1
-31.0509493947 118.1664137244 9.5480151107 0.3402092052 1
-29.3258933425 118.1664137244 9.345294816 0.4458686658 1
-27.6008372903 118.1664137244 9.4453525566 0.5408072624 1
-25.8757812381 118.1664137244 0 -0 0
-24.1507251859 118.1664137244 0 -0 0
-22.4256691337 118.1664137244 0 -0 0
-20.7006130815 118.1664137244 0 -0 0
-18.9755570292 118.1664137244 0 -0 0
-17.250500977 118.1664137244 0 -0 0
-15.5254449248 118.1664137244 0 -0 0
-13.8003888726 118.1664137244 0 -0 0
-12.0753328204 118.1664137244 0 -0 0
-10.3502767682 118.1664137244 0 -0 0
-8.625220716 118.1664137244 0 -0 0
-6.9001646638 118.1664137244 0 -0 0
-5.1751086116 118.1664137244 0 -0 0
-3.4500525594 118.1664137244 0 -0 0
-1.7249965072 118.1664137244 9.8222032618 0.8133351876 1
0.000059545 118.1664137244 9.5629941592 0.7588123285 1
1.7251155972 118.1664137244 9.6556981001 0.5976196154 1
3.4501716495 118.1664137244 9.8596878987 0.6849000605 1
5.1752277017 118.1664137244 9.9637844712 0.8639138107 1
6.9002837539 118.1664137244 9.8360910305 0.8678703852 1
8.6253398061 118.1664137244 9.9414872678 0.7446092403 1
10.3503958583 118.1664137244 10.0071532448 0.9000165255 1
12.0754519105 118.1664137244 9.9076630793 0.7736817007 1
13.8005079627 118.1664137244 9.7532826389 0.7916494299 1
15.5255640149 118.1664137244 9.7116659452 0.819856818 1
17.2506200671 118.1664137244 9.7616427192 0.7881630927 1
18.9756761193 118.1664137244 9.9073148568 0.8431123186 1
20.7007321715 118.1664137244 10.2573277574 0.7492704855 1
22.4257882237 118.1664137244 10.198809937 0.740855567 1
24.150844276 118.1664137244 9.8124173888 0.7814933992 1
25.8759003282 118.1664137244 10.1072685655 0.956454608 1
27.6009563804 118.1664137244 10.3143731727 0.828768022 1
29.3260124326 118.1664137244 10.2317731662 0.7573728263 1
31.0510684848 118.1664137244 10.4269422437 0.7866605266 1
32.776124537 118.1664137244 9.9409334022 0.814796625 1
34.5011805892 118.1664137244 10.0148607508 0.8109415011 1
36.2262366414 118.1664137244 10.0561484154 0.7733567844 1
37.9512926936 118.1664137244 9.9385506834 0.7080294333 1
39.6763487458 118.1664137244 10.3997205719 0.726734736 1
41.401404798 118.1664137244 10.0072409859 0.7398753345 1
43.1264608502 118.1664137244 10.3554442265 0.810463038 1
44.8515169024 118.1664137244 10.2653889696 0.8016546556 1
46.5765729547 118.1664137244 9.8929445121 0.7462187408 1
48.3016290069 118.1664137244 10.1835484719 0.85342738 1
50.0266850591 118.1664137244 10.3030353792 0.6635145418 1
51.7517411113 118.1664137244 10.3972693053 0.6135322839 1
53.4767971635 118.1664137244 10.2566834088 0.7683994131 1
55.2018532157 118.1664137244 10.3915798443 0.7804199418 1
56.9269092679 118.1664137244 10.3513450727 0.6266660277 1
58.6519653201 118.1664137244 10.4319407437 0.8670971669 1
60.3770213723 118.1664137244 10.3906092085 0.9096886093 1
62.1020774245 118.1664137244 10.5060847031 0.6938496512 1
63.8271334767 118.1664137244 10.4648080061 0.7350536877 1
65.5521895289 118.1664137244 10.2252583905 0.690063075 1
67.2772455812 118.1664137244 10.6303644672 0.6154845231 1
69.0023016334 118.1664137244 10.6581619399 0.5556711507 1
70.7273576856 118.1664137244 10.4748762956 0.6763987718 1
72.4524137378 118.1664137244 0 -0 0
74.17746979 118.1664137244 0 -0 0
75.9025258422 118.1664137244 0 -0 0
77.6275818944 118.1664137244 0 -0 0
79.3526379466 118.1664137244 0 -0 0
81.0776939988 118.1664137244 0 -0 0
82.802750051 118.1664137244 10.579699474 0.571438498 1
84.5278061032 118.1664137244 10.7107544951 0.4577644376 1
86.2528621554 118.1664137244 10.7572325934 0.44896291 1
87.9779182076 118.1664137244 10.674928713 0.3428236153 1
89.7029742599 118.1664137244 10.6700453732 0.4380377739 1
91.4280303121 118.1664137244 10.8044564908 0.4683564318 1
93.1530863643 118.1664137244 10.6009657197 0.4915255623 1
94.8781424165 118.1664137244 10.6957754466 0.3910825834 1
96.6031984687 118.1664137244 10.6331968591 0.3967432544 1
98.3282545209 118.1664137244 10.8253745141 0.4279119042 1
100.0533105731 118.1664137244 10.7257664465 0.175286125 1
101.7783666253 118.1664137244 10.7168415329 0.1251969327 1
103.5034226775 118.1664137244 10.7237072729 -0.0411889559 1
105.2284787297 118.1664137244 10.6894526046 0.3144393741 1
106.9535347819 118.1664137244 10.6602156297 0.2526682788 1
108.6785908341 118.1664137244 10.6568430817 0.2121332681 1
110.4036468863 118.1664137244 10.6672184651 0.0869898027 1
112.1287029386 118.1664137244 10.6765957937 0.2377221332 1
113.8537589908 118.1664137244 10.6032277945 0.2666300791 1
115.578815043 118.1664137244 10.6486173549 0.3074475063 1
117.3038710952 118.1664137244 10.6359881224 0.241521048 1
119.0289271474 118.1664137244 10.5625406079 0.3058434896 1
120.7539831996 118.1664137244 10.4606265949 0.258291934 1
122.4790392518 118.1664137244 10.6900037283 0.2577860518 1
124.204095304 118.1664137244 10.6332407297 0.147285751 1
125.9291513562 118.1664137244 10.6995318619 0.0778249721 1
127.6542074084 118.1664137244 10.5867352123 0.2219876888 1
129.3792634606 118.1664137244 10.5727048643 0.2584098361 1
131.1043195128 118.1664137244 10.6154950951 0.1802681735 1
132.8293755651 118.1664137244 10.6199095685 0.3169934623 1
134.5544316173 118.1664137244 0 -0 0
-37.9511736035 116.4413576722 0 -0 0
-36.2261175513 116.4413576722 9.2612361139 0.2634371261 1
-34.5010614991 116.4413576722 9.2083556583 0.3573118621 1
-32.7760054469 116.4413576722 9.4869665084 0.5128973714 1
-31.0509493947 116.4413576722 9.552163619 0.3292415695 1
-29.3258933425 116.4413576722 9.4532437705 0.7481476738 1
-27.6008372903 116.4413576722 9.7930869308 0.5839964409 1
-25.8757812381 116.4413576722 0 -0 0
-24.1507251859 116.4413576722 0 -0 0
-22.4256691337 116.4413576722 0 -0 0
-20.7006130815 116.4413576722 0 -0 0
-18.9755570292 116.4413576722 0 -0 0
-17.250500977 116.4413576722 0 -0 0
-15.5254449248 116.4413576722 0 -0 0
-13.8003888726 116.4413576722 0 -0 0
-12.0753328204 116.4413576722 0 -0 0
-10.3502767682 116.4413576722 0 -0 0
-8.625220716 116.4413576722 0 -0 0
-6.9001646638 116.4413576722 0 -0 0
-5.1751086116 116.4413576722 0 -0 0
-3.4500525594 116.4413576722 0 -0 0
-1.7249965072 116.4413576722 9.7640665667 0.7483656555 1
0.000059545 116.4413576722 9.9424798389 0.8524896471 1
1.7251155972 116.4413576722 9.9429898339 0.7948931081 1
3.4501716495 116.4413576722 9.796755605 0.6984423487 1
5.1752277017 116.4413576722 9.9541768223 0.9459311615 1
6.9002837539 116.4413576722 9.7843621766 0.8000712031 1
8.6253398061 116.4413576722 9.7459507744 0.9014916725 1
10.3503958583 116.4413576722 9.8765670901 0.8119231045 1
12.0754519105 116.4413576722 9.938260041 0.8390858253 1
13.8005079627 116.4413576722 9.7910496925 0.8624386636 1
15.5255640149 116.4413576722 9.6980359159 0.8993461288 1
17.2506200671 116.4413576722 9.9414927516 0.8688739239 1
18.9756761193 116.4413576722 10.1426529002 0.9530573828 1
20.7007321715 116.4413576722 10.1515174918 0.9194141602 1
22.4257882237 116.4413576722 10.1144084964 0.7866440751 1
24.150844276 116.4413576722 9.7647849469 0.7592441792 1
25.8759003282 116.4413576722 10.1278027215 0.8928697399 1
27.6009563804 116.4413576722 10.1357240964 0.8735872654 1
29.3260124326 116.4413576722 9.9568803445 0.9745937065 1
31.0510684848 116.4413576722 10.1737269541 1.0319174255 1
32.776124537 116.4413576722 9.9907237265 0.8848825592 1
34.5011805892 116.4413576722 9.6870408611 0.8533314131 1
36.2262366414 116.4413576722 9.8421780683 0.7696524655 1
37.9512926936 116.4413576722 10.3133120539 0.795738987 1
39.6763487458 116.4413576722 10.0652104244 0.9758645813 1
41.401404798 116.4413576722 10.2617888432 0.8560541287 1
43.1264608502 116.4413576722 10.1923719348 0.8433069941 1
44.8515169024 116.4413576722 10.3289710958 0.851439496 1
46.5765729547 116.4413576722 10.0084474258 0.8373926965 1
48.3016290069 116.4413576722 10.4553182593 0.8684393313 1
50.0266850591 116.4413576722 10.4415045221 0.8025073892 1
51.7517411113 116.4413576722 10.3671604034 0.7488523443 1
53.4767971635 116.4413576722 10.2793507699 0.7321513771 1
55.2018532157 116.4413576722 10.3991392872 0.8261604666 1
56.9269092679 116.4413576722 10.6157007382 0.8189972295 1
58.6519653201 116.4413576722 10.556426151 0.7313150948 1
60.3770213723 116.4413576722 10.0953385197 0.6731468679 1
62.1020774245 116.4413576722 10.5382061662 0.689399533 1
63.8271334767 116.4413576722 10.512799638 0.6625726961 1
65.5521895289 116.4413576722 9.9642396281 0.6476320343 1
67.2772455812 116.4413576722 10.3904364683 0.5460004379 1
69.0023016334 116.4413576722 10.5429140238 0.6002628157 1
70.7273576856 116.4413576722 10.5717260028 0.5995855641 1
72.4524137378 116.4413576722 0 -0 0
74.17746979 116.4413576722 0 -0 0
75.9025258422 116.4413576722 0 -0 0
77.6275818944 116.4413576722 0 -0 0
79.3526379466 116.4413576722 0 -0 0
81.0776939988 116.4413576722 0 -0 0
82.802750051 116.4413576722 10.7885342257 0.6169651539 1
84.5278061032 116.4413576722 10.9498928243 0.2216147892 1
86.2528621554 116.4413576722 10.8047910037 0.2918789474 1
87.9779182076 116.4413576722 10.6330844409 0.3633139008 1
89.7029742599 116.4413576722 10.7082730675 0.4274306992 1
91.4280303121 116.4413576722 10.7333834695 0.4377690668 1
93.1530863643 116.4413576722 10.679685925 0.387574311 1
94.8781424165 116.4413576722 10.6610656215 0.2652248507 1
96.6031984687 116.4413576722 10.7396624409 0.2889163148 1
98.3282545209 116.4413576722 10.75191329 0.2950568199 1
100.0533105731 116.4413576722 10.758537742 0.06138997 1
101.7783666253 116.4413576722 10.7860582819 0.2544518905 1
103.5034226775 116.4413576722 10.7739637216 0.4281860951 1
105.2284787297 116.4413576722 10.6851587752 0.2681833705 1
106.9535347819 116.4413576722 10.7218290653 0.2909412146 1
108.6785908341 116.4413576722 10.7212121358 0.277319411 1
110.4036468863 116.4413576722 10.575635965 0.0984345306 1
112.1287029386 116.4413576722 10.6689513516 -0.0367388377 1
113.8537589908 116.4413576722 10.6081741982 0.210120707 1
115.578815043 116.4413576722 10.5836395971 0.2912167764 1
117.3038710952 116.4413576722 10.612004645 0.1406489604 1
119.0289271474 116.4413576722 10.5530865059 0.2918241092 1
120.7539831996 116.4413576722 10.5164792798 0.164899774 1
122.4790392518 116.4413576722 10.5793457678 0.280691959 1
124.204095304 116.4413576722 10.4930907967 0.0924667658 1
125.9291513562 116.4413576722 10.7179684575 0.1907587171 1
127.6542074084 116.4413576722 10.5967760828 0.1410437953 1
129.3792634606 116.4413576722 10.5991725112 0.2133794657 1
131.1043195128 116.4413576722 10.6843608797 0.0273258644 1
132.8293755651 116.4413576722 10.6672376585 0.2880580973 1
134.5544316173 116.4413576722 0 -0 0
-37.9511736035 114.71630162 0 -0 0
-36.2261175513 114.71630162 9.3738572813 0.3112861788 1
-34.5010614991 114.71630162 9.2652859134 0.4906056518 1
-32.7760054469 114.71630162 9.4109745025 0.4437039287 1
-31.0509493947 114.71630162 9.450819923 0.4210968895 1
-29.3258933425 114.71630162 9.2689079751 0.7489373435 1
-27.6008372903 114.71630162 9.4869637665 0.7213647073 1
-25.8757812381 114.71630162 0 -0 0
-24.1507251859 114.71630162 0 -0 0
-22.4256691337 114.71630162 0 -0 0
-20.7006130815 114.71630162 0 -0 0
-18.9755570292 114.71630162 0 -0 0
-17.250500977 114.71630162 0 -0 0
-15.5254449248 114.71630162 0 -0 0
-13.8003888726 114.71630162 0 -0 0
-12.0753328204 114.71630162 0 -0 0
-10.3502767682 114.71630162 0 -0 0
-8.625220716 114.71630162 0 -0 0
-6.9001646638 114.71630162 0 -0 0
-5.1751086116 114.71630162 0 -0 0
-3.4500525594 114.71630162 0 -0 0
-1.7249965072 114.71630162 9.8203716666 0.5645768709 1
0.000059545 114.71630162 9.8340757274 0.8879726906 1
1.7251155972 114.71630162 9.9640202754 0.7941678732 1
3.4501716495 114.71630162 9.6612477238 0.6978281611 1
5.1752277017 114.71630162 9.9240432432 0.9535838293 1
6.9002837539 114.71630162 9.8705431162 0.9880743017 1
8.6253398061 114.71630162 9.8303412475 0.7854170709 1
10.3503958583 114.71630162 9.9564580906 0.9079749162 1
12.0754519105 114.71630162 10.1197277997 0.9467715566 1
13.8005079627 114.71630162 9.75902968 0.9798417202 1
15.5255640149 114.71630162 9.7332475104 0.8879014009 1
17.2506200671 114.71630162 9.6012657241 0.8303679259 1
18.9756761193 114.71630162 9.7029549005 0.881577188 1
20.7007321715 114.71630162 10.1030103809 0.9502962805 1
22.4257882237 114.71630162 10.2270488571 0.9800254281 1
24.150844276 114.71630162 9.9108107907 0.8061061447 1
25.8759003282 114.71630162 10.2895095425 0.8525664205 1
27.6009563804 114.71630162 10.2941269171 0.9865484294 1
29.3260124326 114.71630162 9.933985405 0.9616217353 1
31.0510684848 114.71630162 9.8916201701 0.948928068 1
32.776124537 114.71630162 10.0087545196 0.7753940228 1
34.5011805892 114.71630162 9.8472012455 0.8319116206 1
36.2262366414 114.71630162 10.1569793744 0.8563050134 1
37.9512926936 114.71630162 10.0889635815 0.8250856383 1
39.6763487458 114.71630162 9.954217951 1.0215379293 1
41.401404798 114.71630162 10.3215131035 0.891090241 1
43.1264608502 114.71630162 10.0750209746 0.8116900422 1
44.8515169024 114.71630162 10.2710702049 0.9461710785 1
46.5765729547 114.71630162 10.3966578596 0.7684679608 1
48.3016290069 114.71630162 10.790722269 0.7955100376 1
50.0266850591 114.71630162 10.5075077538 0.873988955 1
51.7517411113 114.71630162 10.1722298719 0.8894231604 1
53.4767971635 114.71630162 10.4950238425 0.8242699204 1
55.2018532157 114.71630162 10.4722056763 0.7998847533 1
56.9269092679 114.71630162 10.5252259693 0.8581023347 1
58.6519653201 114.71630162 10.5179297496 0.7341255515 1
60.3770213723 114.71630162 10.4841247545 0.7502520889 1
62.1020774245 114.71630162 10.6964910848 0.9956899538 1
63.8271334767 114.71630162 10.7073709795 0.7241175839 1
65.5521895289 114.71630162 10.5788083536 0.7154627484 1
67.2772455812 114.71630162 10.3857011915 0.5244504047 1
69.0023016334 114.71630162 10.6020350641 0.6696372244 1
70.7273576856 114.71630162 10.6066743741 0.5670199118 1
72.4524137378 114.71630162 0 -0 0
74.17746979 114.71630162 0 -0 0
75.9025258422 114.71630162 0 -0 0
77.6275818944 114.71630162 0 -0 0
79.3526379466 114.71630162 0 -0 0
81.0776939988 114.71630162 0 -0 0
82.802750051 114.71630162 10.7254538689 0.5208214882 1
84.5278061032 114.71630162 10.7848710354 0.5460305989 1
86.2528621554 114.71630162 10.9251964505 0.2350912716 1
87.9779182076 114.71630162 10.7037214987 0.3804892183 1
89.7029742599 114.71630162 10.7181055529 0.328531415 1
91.4280303121 114.71630162 10.671646648 0.3590420066 1
93.1530863643 114.71630162 10.7383326151 0.3038898795 1
94.8781424165 114.71630162 10.6905877549 0.3395675985 1
96.6031984687 114.71630162 10.771696163 0.3210857613 1
98.3282545209 114.71630162 10.8519573211 0.1234037242 1
100.0533105731 114.71630162 10.6907933981 0.0128924558 1
101.7783666253 114.71630162 10.7971191426 0.0469154327 1
103.5034226775 114.71630162 10.7994881519 0.2905765407 1
105.2284787297 114.71630162 10.6641968815 0.1816213056 1
106.9535347819 114.71630162 10.7843857175 0.2697160976 1
108.6785908341 114.71630162 10.7429746669 0.3829912102 1
110.4036468863 114.71630162 10.5466293104 0.199191458 1
112.1287029386 114.71630162 10.673003893 -0.0414000829 1
113.8537589908 114.71630162 10.518642646 0.0714280986 1
115.578815043 114.71630162 10.5684905503 0.0675112817 1
117.3038710952 114.71630162 10.5604348219 -0.0080351641 1
119.0289271474 114.71630162 10.5848570047 0.2481921125 1
120.7539831996 114.71630162 10.5703687579 0.1567659011 1
122.4790392518 114.71630162 10.5483101006 0.2810442943 1
124.204095304 114.71630162 10.5061888956 0.0332456458 1
125.9291513562 114.71630162 10.5886518067 0.2084604811 1
127.6542074084 114.71630162 10.5720632576 0.0299114845 1
129.3792634606 114.71630162 10.561575456 0.1542611673 1
131.1043195128 114.71630162 10.6131096343 0.0742591195 1
132.8293755651 114.71630162 10.6434186956 0.1568714646 1
134.5544316173 114.71630162 0 -0 0
-37.9511736035 112.9912455678 0 -0 0
-36.2261175513 112.9912455678 9.5420679103 0.5652582353 1
-34.5010614991 112.9912455678 9.51961716 0.5901684779 1
-32.7760054469 112.9912455678 9.5210813393 0.3145408247 1
-31.0509493947 112.9912455678 9.5143033405 0.5978005814 1
-29.3258933425 112.9912455678 9.3242369554 0.6817811391 1
-27.6008372903 112.9912455678 9.376725318 0.3409111339 1
-25.8757812381 112.9912455678 0 -0 0
-24.1507251859 112.9912455678 0 -0 0
-22.4256691337 112.9912455678 0 -0 0
-20.7006130815 112.9912455678 0 -0 0
-18.9755570292 112.9912455678 0 -0 0
-17.250500977 112.9912455678 0 -0 0
-15.5254449248 112.9912455678 0 -0 0
-13.8003888726 112.9912455678 0 -0 0
-12.0753328204 112.9912455678 0 -0 0
-10.3502767682 112.9912455678 0 -0 0
-8.625220716 112.9912455678 0 -0 0
-6.9001646638 112.9912455678 0 -0 0
-5.1751086116 112.9912455678 0 -0 0
-3.4500525594 112.9912455678 0 -0 0
-1.7249965072 112.9912455678 0 -0 0
0.000059545 112.9912455678 9.7999362193 0.7792820496 1
1.7251155972 112.9912455678 9.7269301522 0.7616721395 1
3.4501716495 112.9912455678 9.6530960286 0.7297508358 1
5.1752277017 112.9912455678 9.888222945 0.8502782975 1
6.9002837539 112.9912455678 9.7561424499 0.858302494 1
8.6253398061 112.9912455678 9.5864457063 0.6869564922 1
10.3503958583 112.9912455678 9.7167987987 0.942273455 1
12.0754519105 112.9912455678 10.1990100964 0.8854117476 1
13.8005079627 112.9912455678 9.9541960157 0.8096034495 1
15.5255640149 112.9912455678 9.8960017406 0.8577691927 1
17.2506200671 112.9912455678 9.5929029018 0.8041182607 1
18.9756761193 112.9912455678 9.553668927 0.9168107177 1
20.7007321715 112.9912455678 9.7369052169 0.8954498762 1
22.4257882237 112.9912455678 9.9944335292 0.9990666146 1
24.150844276 112.9912455678 9.9276378858 0.8329425783 1
25.8759003282 112.9912455678 10.3849471666 0.7923102299 1
27.6009563804 112.9912455678 10.2817197792 0.8762949004 1
29.3260124326 112.9912455678 9.9338126647 0.8611705308 1
31.0510684848 112.9912455678 9.9825281607 0.804138825 1
32.776124537 112.9912455678 9.9654570357 0.8365632691 1
34.5011805892 112.9912455678 10.0355566794 0.9717832498 1
36.2262366414 112.9912455678 10.3673441113 0.9616738316 1
37.9512926936 112.9912455678 10.0651775215 0.7975870337 1
39.6763487458 112.9912455678 10.2223793862 0.8170216841 1
41.401404798 112.9912455678 10.2277178829 0.9200681055 1
43.1264608502 112.9912455678 10.2272407907 0.8376956775 1
44.8515169024 112.9912455678 10.4968225347 0.8085615241 1
46.5765729547 112.9912455678 10.4154700968 0.8629788197 1
48.3016290069 112.9912455678 10.4326481562 1.0039074549 1
50.0266850591 112.9912455678 10.3859479633 0.8469660716 1
51.7517411113 112.9912455678 10.1700034418 0.779542531 1
53.4767971635 112.9912455678 10.3854407102 0.7405306507 1
55.2018532157 112.9912455678 10.5109433657 0.8536618132 1
56.9269092679 112.9912455678 10.8472275282 0.7216855107 1
58.6519653201 112.9912455678 10.4445014285 0.7740395198 1
60.3770213723 112.9912455678 10.582076709 0.7885072022 1
62.1020774245 112.9912455678 10.6809033326 0.7664965283 1
63.8271334767 112.9912455678 10.7500816949 0.6496130635 1
65.5521895289 112.9912455678 10.673936142 0.6749044315 1
67.2772455812 112.9912455678 10.574010013 0.6098348197 1
69.0023016334 112.9912455678 10.6594259599 0.5779683541 1
70.7273576856 112.9912455678 10.5932006336 0.4815724329 1
72.4524137378 112.9912455678 0 -0 0
74.17746979 112.9912455678 0 -0 0
75.9025258422 112.9912455678 0 -0 0
77.6275818944 112.9912455678 0 -0 0
79.3526379466 112.9912455678 0 -0 0
81.0776939988 112.9912455678 0 -0 0
82.802750051 112.9912455678 10.6660367024 0.3756634586 1
84.5278061032 112.9912455678 10.793041924 0.539104537 1
86.2528621554 112.9912455678 10.8081909708 0.3019719142 1
87.9779182076 112.9912455678 10.8426238631 0.3195215023 1
89.7029742599 112.9912455678 10.7649675184 0.4190308612 1
91.4280303121 112.9912455678 10.7243461377 0.3159104082 1
93.1530863643 112.9912455678 10.8164221814 0.3078985503 1
94.8781424165 112.9912455678 10.7994004108 0.2138346226 1
96.6031984687 112.9912455678 10.7544084272 0.2018538516 1
98.3282545209 112.9912455678 10.8007933005 0.2963921295 1
100.0533105731 112.9912455678 10.6724637369 0.0972842998 1
101.7783666253 112.9912455678 10.7857566719 -0.0643676831 1
103.5034226775 112.9912455678 10.7485599354 0.154269393 1
105.2284787297 112.9912455678 10.7596948276 0.1247829044 1
106.9535347819 112.9912455678 10.768353776 0.2960014075 1
108.6785908341 112.9912455678 10.6915611326 0.3627751157 1
110.4036468863 112.9912455678 10.6908756554 0.3404806542 1
112.1287029386 112.9912455678 10.6509260423 0.125427253 1
113.8537589908 112.9912455678 10.6310417187 0.1453609309 1
115.578815043 112.9912455678 10.6202824681 -0.1151423526 1
117.3038710952 112.9912455678 10.5834065349 -0.007285252 1
119.0289271474 112.9912455678 10.6771715945 0.0749020972 1
120.7539831996 112.9912455678 10.6359936062 0.1828990351 1
122.4790392518 112.9912455678 10.6422533843 0.2897046136 1
124.204095304 112.9912455678 10.6029865065 0.0502660454 1
125.9291513562 112.9912455678 10.5408274311 0.0967729337 1
127.6542074084 112.9912455678 10.558323552 -0.0018137728 1
129.3792634606 112.9912455678 10.5757730604 0.0259028137 1
131.1043195128 112.9912455678 10.5146476847 0.1287271404 1
132.8293755651 112.9912455678 10.5826470261 0.1274302175 1
134.5544316173 112.9912455678 0 -0 0
-37.9511736035 111.2661895156 0 -0 0
-36.2261175513 111.2661895156 9.4954499747 0.6398107391 1
-34.5010614991 111.2661895156 9.5507597616 0.5623134251 1
-32.7760054469 111.2661895156 9.5669534757 0.4643820348 1
-31.0509493947 111.2661895156 9.5225948731 0.5041698753 1
-29.3258933425 111.2661895156 9.432937193 0.5174749884 1
-27.6008372903 111.2661895156 9.4703066698 0.4745394365 1
-25.8757812381 111.2661895156 0 -0 0
-24.1507251859 111.2661895156 0 -0 0
-22.4256691337 111.2661895156 0 -0 0
-20.7006130815 111.2661895156 0 -0 0
-18.9755570292 111.2661895156 0 -0 0
-17.250500977 111.2661895156 0 -0 0
-15.5254449248 111.2661895156 0 -0 0
-13.8003888726 111.2661895156 0 -0 0
-12.0753328204 111.2661895156 0 -0 0
-10.3502767682 111.2661895156 0 -0 0
-8.625220716 111.2661895156 0 -0 0
-6.9001646638 111.2661895156 0 -0 0
-5.1751086116 111.2661895156 0 -0 0
-3.4500525594 111.2661895156 0 -0 0
-1.7249965072 111.2661895156 0 -0 0
0.000059545 111.2661895156 9.507994208 0.9194991594 1
1.7251155972 111.2661895156 9.6948498177 0.8579638683 1
3.4501716495 111.2661895156 9.6630985123 0.8783280259 1
5.1752277017 111.2661895156 9.6920092001 0.8731677533 1
6.9002837539 111.2661895156 9.6618290085 0.7980997706 1
8.6253398061 111.2661895156 9.7134975404 0.7108316642 1
10.3503958583 111.2661895156 9.6336970229 0.8759110332 1
12.0754519105 111.2661895156 10.1964957659 0.8008992596 1
13.8005079627 111.2661895156 10.3588167745 0.8224081642 1
15.5255640149 111.2661895156 10.0724243868 1.0329017708 1
17.2506200671 111.2661895156 9.8357949043 0.8786419745 1
18.9756761193 111.2661895156 9.9743325949 0.8075100021 1
20.7007321715 111.2661895156 9.7562055138 0.965245168 1
22.4257882237 111.2661895156 9.8757253241 0.9587139409 1
24.150844276 111.2661895156 9.7065440593 0.8970854249 1
25.8759003282 111.2661895156 9.9905482443 0.7144907416 1
27.6009563804 111.2661895156 9.9687391007 0.8255819238 1
29.3260124326 111.2661895156 9.8725145487 0.9565382362 1
31.0510684848 111.2661895156 10.0483970389 0.9207837438 1
32.776124537 111.2661895156 10.1556276133 1.005226313 1
34.5011805892 111.2661895156 9.9555614864 0.9280196414 1
36.2262366414 111.2661895156 10.10147217 0.8730100935 1
37.9512926936 111.2661895156 10.2104767595 0.943416831 1
39.6763487458 111.2661895156 10.2801102787 0.8953744737 1
41.401404798 111.2661895156 10.2838858873 0.9283130257 1
43.1264608502 111.2661895156 10.4014013621 0.9575856454 1
44.8515169024 111.2661895156 10.358531616 0.8703545547 1
46.5765729547 111.2661895156 10.3097969266 0.893287881 1
48.3016290069 111.2661895156 10.1995721877 0.9801913136 1
50.0266850591 111.2661895156 10.3980644589 0.8210755965 1
51.7517411113 111.2661895156 10.5068551795 0.7952618949 1
53.4767971635 111.2661895156 10.504431332 0.7727096939 1
55.2018532157 111.2661895156 10.4315047802 0.8326697584 1
56.9269092679 111.2661895156 10.8774269132 0.7709151145 1
58.6519653201 111.2661895156 10.4422914499 0.8956596322 1
60.3770213723 111.2661895156 10.5501142767 0.6560263885 1
62.1020774245 111.2661895156 10.5554226123 0.559727805 1
63.8271334767 111.2661895156 10.5409754942 0.9812688838 1
65.5521895289 111.2661895156 10.5744651699 0.7823200847 1
67.2772455812 111.2661895156 10.5595107986 0.672120023 1
69.0023016334 111.2661895156 10.566212024 0.5637145406 1
70.7273576856 111.2661895156 10.7167154051 0.743774329 1
72.4524137378 111.2661895156 10.9908295246 0.7364205293 1
74.17746979 111.2661895156 0 -0 0
75.9025258422 111.2661895156 0 -0 0
77.6275818944 111.2661895156 0 -0 0
79.3526379466 111.2661895156 0 -0 0
81.0776939988 111.2661895156 0 -0 0
82.802750051 111.2661895156 10.7035350489 0.4611959367 1
84.5278061032 111.2661895156 10.789850342 0.3729750169 1
86.2528621554 111.2661895156 10.6915337135 0.350240479 1
87.9779182076 111.2661895156 10.8716743882 0.3809018756 1
89.7029742599 111.2661895156 10.7328625068 0.2825934728 1
91.4280303121 111.2661895156 10.8174805583 0.4138445404 1
93.1530863643 111.2661895156 10.8547650359 0.358248224 1
94.8781424165 111.2661895156 10.8387989002 0.1084644334 1
96.6031984687 111.2661895156 10.7542000421 0.1597929686 1
98.3282545209 111.2661895156 10.813455436 0.2886078501 1
100.0533105731 111.2661895156 10.7561550231 0.3046617269 1
101.7783666253 111.2661895156 10.693176117 0.1497027437 1
103.5034226775 111.2661895156 10.6603499833 0.4113781933 1
105.2284787297 111.2661895156 10.7920054824 -0.0655179139 1
106.9535347819 111.2661895156 10.7667826622 0.162791246 1
108.6785908341 111.2661895156 10.7921179007 -0.0326122648 1
110.4036468863 111.2661895156 10.7567555012 0.216713627 1
112.1287029386 111.2661895156 10.6581921009 0.2840274912 1
113.8537589908 111.2661895156 10.7115359391 0.060243852 1
115.578815043 111.2661895156 10.7864750521 -0.0964137437 1
117.3038710952 111.2661895156 10.7012345873 0.1287161728 1
119.0289271474 111.2661895156 10.6705224654 -0.0869473031 1
120.7539831996 111.2661895156 10.6332133106 0.1359301352 1
122.4790392518 111.2661895156 10.6559108327 0.1146446961 1
124.204095304 111.2661895156 10.595114486 0.0993475862 1