TITLE = "B00006"
VARIABLES = "x", "y", "Vx", "Vy", "isValid"
ZONE T="Frame 0", I=101, J=78, F=POINT
-37.9511736035 119.8914697766 0 -0 0
-36.2261175513 119.8914697766 0 -0 0
-34.5010614991 119.8914697766 0 -0 0
-32.7760054469 119.8914697766 0 -0 0
-31.0509493947 119.8914697766 0 -0 0
-29.3258933425 119.8914697766 0 -0 0
-27.6008372903 119.8914697766 0 -0 0
-25.8757812381 119.8914697766 0 -0 0
-24.1507251859 119.8914697766 0 -0 0
-22.4256691337 119.8914697766 0 -0 0
-20.7006130815 119.8914697766 0 -0 0
-18.9755570292 119.8914697766 0 -0 0
-17.250500977 119.8914697766 0 -0 0
-15.5254449248 119.8914697766 0 -0 0
-13.8003888726 119.8914697766 0 -0 0
-12.0753328204 119.8914697766 0 -0 0
-10.3502767682 119.8914697766 0 -0 0
-8.625220716 119.8914697766 0 -0 0
-6.9001646638 119.8914697766 0 -0 0
-5.1751086116 119.8914697766 0 -0 0
-3.4500525594 119.8914697766 0 -0 0
-1.7249965072 119.8914697766 0 -0 0
0.000059545 119.8914697766 0 -0 0
1.7251155972 119.8914697766 0 -0 0
3.4501716495 119.8914697766 0 -0 0
5.1752277017 119.8914697766 0 -0 0
6.9002837539 119.8914697766 0 -0 0
8.6253398061 119.8914697766 0 -0 0
10.3503958583 119.8914697766 0 -0 0
12.0754519105 119.8914697766 0 -0 0
13.8005079627 119.8914697766 0 -0 0
15.5255640149 119.8914697766 0 -0 0
17.2506200671 119.8914697766 0 -0 0
18.9756761193 119.8914697766 0 -0 0
20.7007321715 119.8914697766 0 -0 0
22.4257882237 119.8914697766 0 -0 0
24.150844276 119.8914697766 0 -0 0
25.8759003282 119.8914697766 0 -0 0
27.6009563804 119.8914697766 0 -0 0
29.3260124326 119.8914697766 0 -0 0
31.0510684848 119.8914697766 0 -0 0
32.776124537 119.8914697766 0 -0 0
34.5011805892 119.8914697766 0 -0 0
36.2262366414 119.8914697766 0 -0 0
37.9512926936 119.8914697766 0 -0 0
39.6763487458 119.8914697766 0 -0 0
41.401404798 119.8914697766 0 -0 0
43.1264608502 119.8914697766 0 -0 0
44.8515169024 119.8914697766 0 -0 0
46.5765729547 119.8914697766 0 -0 0
48.3016290069 119.8914697766 0 -0 0
50.0266850591 119.8914697766 0 -0 0
51.7517411113 119.8914697766 0 -0 0
53.4767971635 119.8914697766 0 -0 0
55.2018532157 119.8914697766 0 -0 0
56.9269092679 119.8914697766 0 -0 0
58.6519653201 119.8914697766 0 -0 0
60.3770213723 119.8914697766 0 -0 0
62.1020774245 119.8914697766 0 -0 0
63.8271334767 119.8914697766 0 -0 0
65.5521895289 119.8914697766 0 -0 0
67.2772455812 119.8914697766 0 -0 0
69.0023016334 119.8914697766 0 -0 0
70.7273576856 119.8914697766 0 -0 0
72.4524137378 119.8914697766 0 -0 0
74.17746979 119.8914697766 0 -0 0
75.9025258422 119.8914697766 0 -0 0
77.6275818944 119.8914697766 0 -0 0
79.3526379466 119.8914697766 0 -0 0
81.0776939988 119.8914697766 0 -0 0
82.802750051 119.8914697766 0 -0 0
84.5278061032 119.8914697766 0 -0 0
86.2528621554 119.8914697766 0 -0 0
87.9779182076 119.8914697766 0 -0 0
89.7029742599 119.8914697766 0 -0 0
91.4280303121 119.8914697766 0 -0 0
93.1530863643 119.8914697766 0 -0 0
94.8781424165 119.8914697766 0 -0 0
96.6031984687 119.8914697766 0 -0 0
98.3282545209 119.8914697766 0 -0 0
100.0533105731 119.8914697766 0 -0 0
101.7783666253 119.8914697766 0 -0 0
103.5034226775 119.8914697766 0 -0 0
105.2284787297 119.8914697766 0 -0 0
106.9535347819 119.8914697766 0 -0 0
108.6785908341 119.8914697766 0 -0 0
110.4036468863 119.8914697766 0 -0 0
112.1287029386 119.8914697766 0 -0 0
113.8537589908 119.8914697766 0 -0 0
115.578815043 119.8914697766 0 -0 0
117.3038710952 119.8914697766 0 -0 0
119.0289271474 119.8914697766 0 -0 0
120.7539831996 119.8914697766 0 -0 0
122.4790392518 119.8914697766 0 -0 0
124.204095304 119.8914697766 0 -0 0
125.9291513562 119.8914697766 0 -0 0
127.6542074084 119.8914697766 0 -0 0
129.3792634606 119.8914697766 0 -0 0
131.1043195128 119.8914697766 0 -0 0
132.8293755651 119.8914697766 0 -0 0
134.5544316173 119.8914697766 0 -0 0
-37.9511736035 118.1664137244 0 -0 0
-36.2261175513 118.1664137244 9.497758662 0.5976250993 1
-34.5010614991 118.1664137244 9.3660126798 0.704754223 1
-32.7760054469 118.1664137244 9.262527553 0.2590829747 1
-31.0509493947 118.1664137244 9.2550366578 0.1563367924 1
-29.3258933425 118.1664137244 9.2118241731 0.2205166547 1
-27.6008372903 118.1664137244 9.0833410626 0.435866182 1
-25.8757812381 118.1664137244 0 -0 0
-24.1507251859 118.1664137244 0 -0 0
-22.4256691337 118.1664137244 0 -0 0
-20.7006130815 118.1664137244 0 -0 0
-18.9755570292 118.1664137244 0 -0 0
-17.250500977 118.1664137244 0 -0 0
-15.5254449248 118.1664137244 0 -0 0
-13.8003888726 118.1664137244 0 -0 0
-12.0753328204 118.1664137244 0 -0 0
-10.3502767682 118.1664137244 0 -0 0
-8.625220716 118.1664137244 0 -0 0
-6.9001646638 118.1664137244 0 -0 0
-5.1751086116 118.1664137244 0 -0 0
-3.4500525594 118.1664137244 0 -0 0
-1.7249965072 118.1664137244 9.9015239452 0.7901043642 1
0.000059545 118.1664137244 9.5429562888 0.6757859552 1
1.7251155972 118.1664137244 9.5924367773 0.6201279458 1
3.4501716495 118.1664137244 9.5253340401 0.6696331116 1
5.1752277017 118.1664137244 9.7803973763 0.8286816519 1
6.9002837539 118.1664137244 9.8971862453 0.6681990932 1
8.6253398061 118.1664137244 9.7500828312 0.7573207301 1
10.3503958583 118.1664137244 10.005582131 0.8704546344 1
12.0754519105 118.1664137244 9.9819688113 0.6953878621 1
13.8005079627 118.1664137244 9.7170346029 0.940555649 1
15.5255640149 118.1664137244 9.6341247607 0.999206452 1
17.2506200671 118.1664137244 9.6772111176 0.6757845842 1
18.9756761193 118.1664137244 9.7490738087 0.7207546326 1
20.7007321715 118.1664137244 9.8919711345 0.9506774059 1
22.4257882237 118.1664137244 9.8766877341 0.783756845 1
24.150844276 118.1664137244 9.9096811242 0.8210125326 1
25.8759003282 118.1664137244 9.971738749 0.929659303 1
27.6009563804 118.1664137244 10.3626773823 0.71029425 1
29.3260124326 118.1664137244 10.1322089691 0.8760316772 1
31.0510684848 118.1664137244 9.5512642728 0.8236091203 1
32.776124537 118.1664137244 10.0095633827 0.8293068071 1
34.5011805892 118.1664137244 10.0998571857 0.7408720184 1
36.2262366414 118.1664137244 9.9975346282 0.8840270836 1
37.9512926936 118.1664137244 10.0714098805 0.9469813126 1
39.6763487458 118.1664137244 10.1023276456 0.8584437023 1
41.401404798 118.1664137244 10.1296370585 0.9976600154 1
43.1264608502 118.1664137244 10.236566023 0.661943428 1
44.8515169024 118.1664137244 10.5170194359 0.7489716174 1
46.5765729547 118.1664137244 10.5917885505 0.8614995598 1
48.3016290069 118.1664137244 10.3892766408 0.7760465971 1
50.0266850591 118.1664137244 10.4063916363 0.6415792704 1
51.7517411113 118.1664137244 10.3857889326 0.7663018528 1
53.4767971635 118.1664137244 10.4944370739 0.769516741 1
55.2018532157 118.1664137244 10.4026736078 0.6908225838 1
56.9269092679 118.1664137244 10.4863539264 0.6333508017 1
58.6519653201 118.1664137244 10.3815554252 0.6725313093 1
60.3770213723 118.1664137244 10.3204327914 0.7436756203 1
62.1020774245 118.1664137244 10.5039103693 0.6194712587 1
63.8271334767 118.1664137244 10.5188784501 0.5805251842 1
65.5521895289 118.1664137244 10.5786081943 0.7801251866 1
67.2772455812 118.1664137244 10.4596943459 0.777043281 1
69.0023016334 118.1664137244 10.4491325127 0.586613593 1
70.7273576856 118.1664137244 10.2094896723 0.660889164 1
72.4524137378 118.1664137244 0 -0 0
74.17746979 118.1664137244 0 -0 0
75.9025258422 118.1664137244 0 -0 0
77.6275818944 118.1664137244 0 -0 0
79.3526379466 118.1664137244 0 -0 0
81.0776939988 118.1664137244 0 -0 0
82.802750051 118.1664137244 10.7005765292 0.4551116408 1
84.5278061032 118.1664137244 10.7448775517 0.3696970647 1
86.2528621554 118.1664137244 10.673332922 0.3463332588 1
87.9779182076 118.1664137244 10.6493713799 0.3849777232 1
89.7029742599 118.1664137244 10.7537092404 0.3775923915 1
91.4280303121 118.1664137244 10.7396788924 0.5167881402 1
93.1530863643 118.1664137244 10.7063948599 0.3582358854 1
94.8781424165 118.1664137244 10.627178369 0.3585525759 1
96.6031984687 118.1664137244 10.5986159037 0.3480510647 1
98.3282545209 118.1664137244 10.6825128331 0.3138498637 1
100.0533105731 118.1664137244 10.5870532738 0.1333582246 1
101.7783666253 118.1664137244 10.615075583 0.0757452342 1
103.5034226775 118.1664137244 10.6473917217 0.23062196 1
105.2284787297 118.1664137244 10.6628697976 0.1612941637 1
106.9535347819 118.1664137244 10.6339124974 0.2859865851 1
108.6785908341 118.1664137244 10.6593903151 0.098030099 1
110.4036468863 118.1664137244 10.6757074152 0.352228363 1
112.1287029386 118.1664137244 10.6802973707 0.2949485145 1
113.8537589908 118.1664137244 10.6585869358 0.1627226983 1
115.578815043 118.1664137244 10.6481731657 0.126030473 1
117.3038710952 118.1664137244 10.5672018531 0.1586454797 1
119.0289271474 118.1664137244 10.5698752143 0.1896605825 1
120.7539831996 118.1664137244 10.5812623621 0.1068604167 1
122.4790392518 118.1664137244 10.5707827862 0.1457064115 1
124.204095304 118.1664137244 10.6151715498 0.0449755322 1
125.9291513562 118.1664137244 10.6420038706 0.1029120678 1
127.6542074084 118.1664137244 10.5667658896 0.1063257445 1
129.3792634606 118.1664137244 10.5425411242 -0.0628897942 1
131.1043195128 118.1664137244 10.5302683398 -0.09176895 1
132.8293755651 118.1664137244 10.4805164023 0.0072125914 1
134.5544316173 118.1664137244 0 -0 0
-37.9511736035 116.4413576722 0 -0 0
-36.2261175513 116.4413576722 9.5957983577 0.7936578782 1
-34.5010614991 116.4413576722 9.4056551991 0.5998940289 1
-32.7760054469 116.4413576722 9.2808489885 0.003885285 1
-31.0509493947 116.4413576722 9.3295836778 0.4421547501 1
-29.3258933425 116.4413576722 9.2666459002 0.1421912842 1
-27.6008372903 116.4413576722 9.1170226719 -0.0525116689 1
-25.8757812381 116.4413576722 0 -0 0
-24.1507251859 116.4413576722 0 -0 0
-22.4256691337 116.4413576722 0 -0 0
-20.7006130815 116.4413576722 0 -0 0
-18.9755570292 116.4413576722 0 -0 0
-17.250500977 116.4413576722 0 -0 0
-15.5254449248 116.4413576722 0 -0 0
-13.8003888726 116.4413576722 0 -0 0
-12.0753328204 116.4413576722 0 -0 0
-10.3502767682 116.4413576722 0 -0 0
-8.625220716 116.4413576722 0 -0 0
-6.9001646638 116.4413576722 0 -0 0
-5.1751086116 116.4413576722 0 -0 0
-3.4500525594 116.4413576722 0 -0 0
-1.7249965072 116.4413576722 9.6804849568 0.7180483685 1
0.000059545 116.4413576722 9.5327015494 0.7579801592 1
1.7251155972 116.4413576722 9.9886810043 0.7282523826 1
3.4501716495 116.4413576722 9.5862949013 0.7095073222 1
5.1752277017 116.4413576722 9.7375440817 0.7197593197 1
6.9002837539 116.4413576722 9.5851679767 0.8145169503 1
8.6253398061 116.4413576722 9.7869505387 0.7640411489 1
10.3503958583 116.4413576722 9.8714561719 0.7870169747 1
12.0754519105 116.4413576722 9.8537763431 0.7100132044 1
13.8005079627 116.4413576722 9.6116794942 0.7740148426 1
15.5255640149 116.4413576722 10.0039013408 1.0058103396 1
17.2506200671 116.4413576722 9.7356823255 0.9071043601 1
18.9756761193 116.4413576722 9.6385556855 0.7450602843 1
20.7007321715 116.4413576722 9.617283956 0.7142878404 1
22.4257882237 116.4413576722 9.6662160628 0.8030050457 1
24.150844276 116.4413576722 9.9289649697 0.8493282261 1
25.8759003282 116.4413576722 10.0171365352 0.921167611 1
27.6009563804 116.4413576722 10.2120533571 0.778669233 1
29.3260124326 116.4413576722 10.1487454219 0.8832195914 1
31.0510684848 116.4413576722 9.6487638124 0.791011936 1
32.776124537 116.4413576722 10.5003294362 0.7521289255 1
34.5011805892 116.4413576722 10.1164402509 0.6836881367 1
36.2262366414 116.4413576722 10.0455481955 0.7807489709 1
37.9512926936 116.4413576722 9.9220361659 0.856736864 1
39.6763487458 116.4413576722 10.2492912223 0.8400783963 1
41.401404798 116.4413576722 9.9572477603 1.0279841572 1
43.1264608502 116.4413576722 10.1126043203 0.7841105513 1
44.8515169024 116.4413576722 10.3824684809 0.7348480445 1
46.5765729547 116.4413576722 10.4900061491 0.7295918051 1
48.3016290069 116.4413576722 10.4556966427 0.6773392466 1
50.0266850591 116.4413576722 10.3577501719 0.7156519401 1
51.7517411113 116.4413576722 10.4357958677 0.7811602573 1
53.4767971635 116.4413576722 10.4154070329 0.8102683625 1
55.2018532157 116.4413576722 10.2942283677 0.6068831548 1
56.9269092679 116.4413576722 10.5254645154 0.561533352 1
58.6519653201 116.4413576722 10.3056566442 0.5749988668 1
60.3770213723 116.4413576722 10.4764199904 0.7067448489 1
62.1020774245 116.4413576722 10.3726579308 0.5529484352 1
63.8271334767 116.4413576722 10.3454719037 0.6635488156 1
65.5521895289 116.4413576722 10.5690608674 0.7111483547 1
67.2772455812 116.4413576722 10.5446332007 0.6652172672 1
69.0023016334 116.4413576722 10.4772864336 0.5589175709 1
70.7273576856 116.4413576722 10.3985031643 0.6343790175 1
72.4524137378 116.4413576722 0 -0 0
74.17746979 116.4413576722 0 -0 0
75.9025258422 116.4413576722 0 -0 0
77.6275818944 116.4413576722 0 -0 0
79.3526379466 116.4413576722 0 -0 0
81.0776939988 116.4413576722 0 -0 0
82.802750051 116.4413576722 10.7256074158 0.4678258725 1
84.5278061032 116.4413576722 10.7739993665 0.3625804401 1
86.2528621554 116.4413576722 10.643317245 0.4267932053 1
87.9779182076 116.4413576722 10.6286398065 0.3774141674 1
89.7029742599 116.4413576722 10.7753154827 0.4193790836 1
91.4280303121 116.4413576722 10.7237264662 0.3281009353 1
93.1530863643 116.4413576722 10.7513703921 0.4156596841 1
94.8781424165 116.4413576722 10.4974038194 0.2812170346 1
96.6031984687 116.4413576722 10.6064906662 0.3158898439 1
98.3282545209 116.4413576722 10.6907413018 0.2687948162 1
100.0533105731 116.4413576722 10.5669495975 0.1877823749 1
101.7783666253 116.4413576722 10.6270741765 0.1638386552 1
103.5034226775 116.4413576722 10.554290204 0.2780761779 1
105.2284787297 116.4413576722 10.5940533673 0.1591047494 1
106.9535347819 116.4413576722 10.6855618359 0.1908176681 1
108.6785908341 116.4413576722 10.5993534772 0.0666969347 1
110.4036468863 116.4413576722 10.7333779857 0.2297157591 1
112.1287029386 116.4413576722 10.6853726441 0.2220315594 1
113.8537589908 116.4413576722 10.6554995464 0.0433591769 1
115.578815043 116.4413576722 10.645094002 0.0570399315 1
117.3038710952 116.4413576722 10.5602045015 0.0714349533 1
119.0289271474 116.4413576722 10.5614575539 0.1519798991 1
120.7539831996 116.4413576722 10.5117193259 0.1182530483 1
122.4790392518 116.4413576722 10.5995837976 0.2573007339 1
124.204095304 116.4413576722 10.5737111449 0.1719656733 1
125.9291513562 116.4413576722 10.594001271 0.0627403601 1
127.6542074084 116.4413576722 10.5411235573 0.150958538 1
129.3792634606 116.4413576722 10.5858934463 -0.0791945556 1
131.1043195128 116.4413576722 10.577922717 -0.0405679136 1
132.8293755651 116.4413576722 10.4354832901 -0.0240300899 1
134.5544316173 116.4413576722 0 -0 0
-37.9511736035 114.71630162 0 -0 0
-36.2261175513 114.71630162 9.5788478767 0.7795822887 1
-34.5010614991 114.71630162 9.4184297528 0.591370805 1
-32.7760054469 114.71630162 9.3942296646 0.5141997782 1
-31.0509493947 114.71630162 9.3715239168 0.4681014343 1
-29.3258933425 114.71630162 9.2444720827 0.4344595827 1
-27.6008372903 114.71630162 9.2591467793 0.3533785938 1
-25.8757812381 114.71630162 0 -0 0
-24.1507251859 114.71630162 0 -0 0
-22.4256691337 114.71630162 0 -0 0
-20.7006130815 114.71630162 0 -0 0
-18.9755570292 114.71630162 0 -0 0
-17.250500977 114.71630162 0 -0 0
-15.5254449248 114.71630162 0 -0 0
-13.8003888726 114.71630162 0 -0 0
-12.0753328204 114.71630162 0 -0 0
-10.3502767682 114.71630162 0 -0 0
-8.625220716 114.71630162 0 -0 0
-6.9001646638 114.71630162 0 -0 0
-5.1751086116 114.71630162 0 -0 0
-3.4500525594 114.71630162 0 -0 0
-1.7249965072 114.71630162 9.5097161268 0.6751018489 1
0.000059545 114.71630162 9.6184328159 0.805072445 1
1.7251155972 114.71630162 9.4933578982 0.7028129515 1
3.4501716495 114.71630162 9.5769724109 0.8149762201 1
5.1752277017 114.71630162 9.669881995 0.761447303 1
6.9002837539 114.71630162 9.6690649062 0.8926147424 1
8.6253398061 114.71630162 9.8126696444 0.7865398826 1
10.3503958583 114.71630162 9.8582840414 0.9354817466 1
12.0754519105 114.71630162 9.705107299 1.0234517817 1
13.8005079627 114.71630162 9.5738055061 0.832861692 1
15.5255640149 114.71630162 9.888222945 0.8445586755 1
17.2506200671 114.71630162 9.6348184636 1.0677582881 1
18.9756761193 114.71630162 9.6906108265 0.915236862 1
20.7007321715 114.71630162 9.4522566833 0.5524261015 1
22.4257882237 114.71630162 9.6209197273 0.713876554 1
24.150844276 114.71630162 9.8620240051 0.8508568403 1
25.8759003282 114.71630162 9.992574515 0.8302884105 1
27.6009563804 114.71630162 10.1906335646 0.8343409519 1
29.3260124326 114.71630162 9.9722048736 0.8437086838 1
31.0510684848 114.71630162 9.8836384732 0.7144921126 1
32.776124537 114.71630162 10.2249019424 0.8661484664 1
34.5011805892 114.71630162 9.9414242039 0.8482191239 1
36.2262366414 114.71630162 9.9059000318 0.6843845816 1
37.9512926936 114.71630162 10.0659123531 0.6886413952 1
39.6763487458 114.71630162 10.0861366734 0.7716568009 1
41.401404798 114.71630162 10.2635189877 0.7739202467 1
43.1264608502 114.71630162 10.2949165869 0.6803759107 1
44.8515169024 114.71630162 10.2462723806 0.6827188719 1
46.5765729547 114.71630162 10.3572566283 0.8127539029 1
48.3016290069 114.71630162 10.6094107992 0.7596609493 1
50.0266850591 114.71630162 10.5242992041 0.7099021571 1
51.7517411113 114.71630162 10.3876342373 0.779782448 1
53.4767971635 114.71630162 10.4445398152 0.8020412647 1
55.2018532157 114.71630162 10.6471257565 0.79113258 1
56.9269092679 114.71630162 10.424375817 0.7160975003 1
58.6519653201 114.71630162 10.2982946187 0.7598199801 1
60.3770213723 114.71630162 10.400438952 0.6974031652 1
62.1020774245 114.71630162 10.5038802083 0.627650373 1
63.8271334767 114.71630162 10.5706895613 0.7077840324 1
65.5521895289 114.71630162 10.5768122439 0.7546199498 1
67.2772455812 114.71630162 10.4940861096 0.6225901801 1
69.0023016334 114.71630162 10.6358373174 0.6682429637 1
70.7273576856 114.71630162 10.6729326033 0.6868385901 1
72.4524137378 114.71630162 0 -0 0
74.17746979 114.71630162 0 -0 0
75.9025258422 114.71630162 0 -0 0
77.6275818944 114.71630162 0 -0 0
79.3526379466 114.71630162 0 -0 0
81.0776939988 114.71630162 0 -0 0
82.802750051 114.71630162 10.6772428842 0.4003598323 1
84.5278061032 114.71630162 10.8003984656 0.3034895608 1
86.2528621554 114.71630162 10.6811528463 0.5949627057 1
87.9779182076 114.71630162 10.8008262034 0.5347490147 1
89.7029742599 114.71630162 10.825256612 0.3841524086 1
91.4280303121 114.71630162 10.7950627109 0.2430798233 1
93.1530863643 114.71630162 10.7805936574 0.4174926502 1
94.8781424165 114.71630162 10.6462565714 0.2033372243 1
96.6031984687 114.71630162 10.7887398689 0.0647474375 1
98.3282545209 114.71630162 10.734060721 0.1825782318 1
100.0533105731 114.71630162 10.7401450169 0.1336392703 1
101.7783666253 114.71630162 10.7237182405 0.2303751882 1
103.5034226775 114.71630162 10.713586887 0.1551413201 1
105.2284787297 114.71630162 10.6492699293 0.2663983877 1
106.9535347819 114.71630162 10.74216032 0.2581425 1
108.6785908341 114.71630162 10.6028000567 0.1997672589 1
110.4036468863 114.71630162 10.7864037625 0.010175224 1
112.1287029386 114.71630162 10.6477042993 0.1587729785 1
113.8537589908 114.71630162 10.5967239865 0.038146808 1
115.578815043 114.71630162 10.66478365 0.0476475224 1
117.3038710952 114.71630162 10.5380252002 0.0344191828 1
119.0289271474 114.71630162 10.5365171503 0.1911165362 1
120.7539831996 114.71630162 10.6172691102 0.2860263428 1
122.4790392518 114.71630162 10.5696805388 0.2451403678 1
124.204095304 114.71630162 10.5328950886 0.009665229 1
125.9291513562 114.71630162 10.5283215845 -0.0474665564 1
127.6542074084 114.71630162 10.5148231668 0.0483905797 1
129.3792634606 114.71630162 10.6370766603 -0.1815870317 1
131.1043195128 114.71630162 10.651447005 0.0397467118 1
132.8293755651 114.71630162 10.5394592186 -0.0560528442 1
134.5544316173 114.71630162 0 -0 0
-37.9511736035 112.9912455678 0 -0 0
-36.2261175513 112.9912455678 9.4457254562 0.538471156 1
-34.5010614991 112.9912455678 9.4524184559 0.4827089541 1
-32.7760054469 112.9912455678 9.6973257615 0.4904521049 1
-31.0509493947 112.9912455678 9.4770078952 0.4936998961 1
-29.3258933425 112.9912455678 9.2399863197 0.4935285268 1
-27.6008372903 112.9912455678 9.2427391963 0.3932829654 1
-25.8757812381 112.9912455678 0 -0 0
-24.1507251859 112.9912455678 0 -0 0
-22.4256691337 112.9912455678 0 -0 0
-20.7006130815 112.9912455678 0 -0 0
-18.9755570292 112.9912455678 0 -0 0
-17.250500977 112.9912455678 0 -0 0
-15.5254449248 112.9912455678 0 -0 0
-13.8003888726 112.9912455678 0 -0 0
-12.0753328204 112.9912455678 0 -0 0
-10.3502767682 112.9912455678 0 -0 0
-8.625220716 112.9912455678 0 -0 0
-6.9001646638 112.9912455678 0 -0 0
-5.1751086116 112.9912455678 0 -0 0
-3.4500525594 112.9912455678 0 -0 0
-1.7249965072 112.9912455678 9.4310370501 0.6748208033 1
0.000059545 112.9912455678 9.4816609147 0.7284648805 1
1.7251155972 112.9912455678 9.3911943714 0.7933384458 1
3.4501716495 112.9912455678 9.6368337667 0.8280359323 1
5.1752277017 112.9912455678 9.4910903395 0.6586682178 1
6.9002837539 112.9912455678 9.6279911104 0.6928310321 1
8.6253398061 112.9912455678 9.7500828312 0.7987262968 1
10.3503958583 112.9912455678 9.7512755616 0.9678129657 1
12.0754519105 112.9912455678 9.5343466947 1.0669357154 1
13.8005079627 112.9912455678 9.4795359352 0.8339570846 1
15.5255640149 112.9912455678 9.8344157241 0.7203447172 1
17.2506200671 112.9912455678 9.7965280265 0.8319335559 1
18.9756761193 112.9912455678 10.0905237277 0.873628394 1
20.7007321715 112.9912455678 9.7436695062 0.8709235008 1
22.4257882237 112.9912455678 9.6132615756 0.8117243161 1
24.150844276 112.9912455678 9.9036927951 0.9198377852 1
25.8759003282 112.9912455678 10.0877050453 0.874349516 1
27.6009563804 112.9912455678 10.2592251584 0.836504318 1
29.3260124326 112.9912455678 10.0459896428 0.8133845419 1
31.0510684848 112.9912455678 10.0411474317 0.8156822616 1
32.776124537 112.9912455678 10.0494636415 1.0095708677 1
34.5011805892 112.9912455678 10.0183978133 0.9499850738 1
36.2262366414 112.9912455678 10.1903758251 0.6071902486 1
37.9512926936 112.9912455678 9.952109423 0.5851274784 1
39.6763487458 112.9912455678 10.2901977616 0.8066792037 1
41.401404798 112.9912455678 10.3972610796 0.7860641614 1
43.1264608502 112.9912455678 10.4818050995 0.7556015532 1
44.8515169024 112.9912455678 10.1152749396 0.6703144759 1
46.5765729547 112.9912455678 10.3312112354 0.8245098374 1
48.3016290069 112.9912455678 10.4909987201 0.8716062362 1
50.0266850591 112.9912455678 10.6115056176 0.7545733373 1
51.7517411113 112.9912455678 10.2076553352 0.835090864 1
53.4767971635 112.9912455678 10.4225935762 0.7868606859 1
55.2018532157 112.9912455678 10.548178489 0.8115488339 1
56.9269092679 112.9912455678 10.4288231933 0.7992856462 1
58.6519653201 112.9912455678 10.4530095719 0.8125455178 1
60.3770213723 112.9912455678 10.3576733985 0.72814819 1
62.1020774245 112.9912455678 10.4709306887 0.830241798 1
63.8271334767 112.9912455678 10.600954752 0.7969701041 1
65.5521895289 112.9912455678 10.4674484644 0.8745949169 1
67.2772455812 112.9912455678 10.4131476999 0.6975800183 1
69.0023016334 112.9912455678 10.7202168228 0.797096232 1
70.7273576856 112.9912455678 10.7381626168 0.698491703 1
72.4524137378 112.9912455678 10.7574190432 0.6302784927 1
74.17746979 112.9912455678 0 -0 0
75.9025258422 112.9912455678 0 -0 0
77.6275818944 112.9912455678 0 -0 0
79.3526379466 112.9912455678 0 -0 0
81.0776939988 112.9912455678 0 -0 0
82.802750051 112.9912455678 10.7032635999 0.3128449541 1
84.5278061032 112.9912455678 10.7087309663 0.4898077563 1
86.2528621554 112.9912455678 10.7238196911 0.2695666635 1
87.9779182076 112.9912455678 10.737852781 0.4923796669 1
89.7029742599 112.9912455678 10.7911308135 0.3658172636 1
91.4280303121 112.9912455678 10.7410525888 0.537178346 1
93.1530863643 112.9912455678 10.8467888228 0.1916498375 1
94.8781424165 112.9912455678 10.7322921897 0.2190785234 1
96.6031984687 112.9912455678 10.8250674203 0.0170848345 1
98.3282545209 112.9912455678 10.735807317 0.1573992821 1
100.0533105731 112.9912455678 10.8420288689 0.1103604634 1
101.7783666253 112.9912455678 10.7699550508 0.3088842666 1
103.5034226775 112.9912455678 10.7473178507 0.2188070745 1
105.2284787297 112.9912455678 10.7102691772 0.2270657042 1
106.9535347819 112.9912455678 10.7035761775 0.2937777194 1
108.6785908341 112.9912455678 10.6990876726 0.1938721547 1
110.4036468863 112.9912455678 10.7916517761 0.0223780897 1
112.1287029386 112.9912455678 10.6488723525 0.261753594 1
113.8537589908 112.9912455678 10.5131560862 0.3010177299 1
115.578815043 112.9912455678 10.7998912125 0.1042076198 1
117.3038710952 112.9912455678 10.6749259711 0.0914988719 1
119.0289271474 112.9912455678 10.5403366294 0.1825151679 1
120.7539831996 112.9912455678 10.698563968 0.2321779934 1
122.4790392518 112.9912455678 10.6272112719 0.0988787198 1
124.204095304 112.9912455678 10.6711722978 -0.0521017535 1
125.9291513562 112.9912455678 10.5882734232 -0.0232555006 1
127.6542074084 112.9912455678 10.581808002 -0.0606003002 1
129.3792634606 112.9912455678 10.6011549114 -0.0578721008 1
131.1043195128 112.9912455678 10.6265669233 0.0886527705 1
132.8293755651 112.9912455678 10.5566153427 0.0659305712 1
134.5544316173 112.9912455678 0 -0 0
-37.9511736035 111.2661895156 0 -0 0
-36.2261175513 111.2661895156 9.3737366373 0.30956426 1
-34.5010614991 111.2661895156 9.3308065692 0.3353820745 1
-32.7760054469 111.2661895156 9.5326576788 0.60564107 1
-31.0509493947 111.2661895156 9.4930645139 0.777824725 1
-29.3258933425 111.2661895156 9.3082680778 0.1627624559 1
-27.6008372903 111.2661895156 9.2224984246 0.318897718 1
-25.8757812381 111.2661895156 0 -0 0
-24.1507251859 111.2661895156 0 -0 0
-22.4256691337 111.2661895156 0 -0 0
-20.7006130815 111.2661895156 0 -0 0
-18.9755570292 111.2661895156 0 -0 0
-17.250500977 111.2661895156 0 -0 0
-15.5254449248 111.2661895156 0 -0 0
-13.8003888726 111.2661895156 0 -0 0
-12.0753328204 111.2661895156 0 -0 0
-10.3502767682 111.2661895156 0 -0 0
-8.625220716 111.2661895156 0 -0 0
-6.9001646638 111.2661895156 0 -0 0
-5.1751086116 111.2661895156 0 -0 0
-3.4500525594 111.2661895156 0 -0 0
-1.7249965072 111.2661895156 9.4872790861 0.7831344317 1
0.000059545 111.2661895156 9.6065740597 0.7395874341 1
1.7251155972 111.2661895156 9.4094609687 0.7837157164 1
3.4501716495 111.2661895156 9.4551493972 0.875854824 1
5.1752277017 111.2661895156 9.7241388889 0.8087507159 1
6.9002837539 111.2661895156 9.7774361147 0.7735007347 1
8.6253398061 111.2661895156 9.7351339437 0.7913766099 1
10.3503958583 111.2661895156 9.626557092 0.9413905603 1
12.0754519105 111.2661895156 9.5671042807 0.9911849974 1
13.8005079627 111.2661895156 9.4993681625 0.824461854 1
15.5255640149 111.2661895156 9.7657857436 0.7536465721 1
17.2506200671 111.2661895156 9.6845018534 0.6953878621 1
18.9756761193 111.2661895156 9.9581854932 0.7918674116 1
20.7007321715 111.2661895156 9.935490713 0.9074470987 1
22.4257882237 111.2661895156 9.8913075925 0.889675416 1
24.150844276 111.2661895156 9.9718374578 0.8388609888 1
25.8759003282 111.2661895156 10.1623260968 0.8745990297 1
27.6009563804 111.2661895156 10.0910529161 0.809377242 1
29.3260124326 111.2661895156 10.1727398669 0.8705848751 1
31.0510684848 111.2661895156 9.9423345177 0.9355516652 1
32.776124537 111.2661895156 9.7734438953 0.8637876828 1
34.5011805892 111.2661895156 10.0650815547 0.7821391187 1
36.2262366414 111.2661895156 10.4419624209 0.5243229059 1
37.9512926936 111.2661895156 10.2252583905 0.698583557 1
39.6763487458 111.2661895156 10.3367498914 0.8924474859 1
41.401404798 111.2661895156 10.3143210764 0.8807916311 1
43.1264608502 111.2661895156 10.4250722619 0.9062721907 1
44.8515169024 111.2661895156 10.4909054952 0.8183857838 1
46.5765729547 111.2661895156 10.3445698157 0.8440130356 1
48.3016290069 111.2661895156 10.2749033936 0.977319164 1
50.0266850591 111.2661895156 10.3998220225 0.8752077335 1
51.7517411113 111.2661895156 10.2830852499 0.8653821029 1
53.4767971635 111.2661895156 10.332546545 0.7871266511 1
55.2018532157 111.2661895156 10.4307480133 0.7943694035 1
56.9269092679 111.2661895156 10.4977328485 0.8571358118 1
58.6519653201 111.2661895156 10.5636647906 0.8082174146 1
60.3770213723 111.2661895156 10.4569113083 0.6636502663 1
62.1020774245 111.2661895156 10.5365034407 0.8390241323 1
63.8271334767 111.2661895156 10.4677774934 0.7412243537 1
65.5521895289 111.2661895156 10.6937903046 0.6528361775 1
67.2772455812 111.2661895156 10.6134578567 0.6827106462 1
69.0023016334 111.2661895156 10.7193202186 0.7652366212 1
70.7273576856 111.2661895156 10.7918711289 0.5878241458 1
72.4524137378 111.2661895156 10.7832176643 0.6829958047 1
74.17746979 111.2661895156 0 -0 0
75.9025258422 111.2661895156 0 -0 0
77.6275818944 111.2661895156 0 -0 0
79.3526379466 111.2661895156 0 -0 0
81.0776939988 111.2661895156 0 -0 0
82.802750051 111.2661895156 10.6534568242 0.3674144256 1
84.5278061032 111.2661895156 10.579789957 0.4846625642 1
86.2528621554 111.2661895156 10.7685895801 0.3349529658 1
87.9779182076 111.2661895156 10.6856824798 0.4620747185 1
89.7029742599 111.2661895156 10.6678079755 0.4806840544 1
91.4280303121 111.2661895156 10.6775993323 0.3448855308 1
93.1530863643 111.2661895156 10.7863626338 0.3451638346 1
94.8781424165 111.2661895156 10.8464159232 0.2696489208 1
96.6031984687 111.2661895156 10.7748411325 0.3577231485 1
98.3282545209 111.2661895156 10.7015115201 0.1372791544 1
100.0533105731 111.2661895156 10.825796768 0.1395508259 1
101.7783666253 111.2661895156 10.7733687274 0.3453585101 1
103.5034226775 111.2661895156 10.6918106463 0.276085552 1
105.2284787297 111.2661895156 10.6959893155 0.2224305071 1
106.9535347819 111.2661895156 10.6836808863 0.1563107442 1
108.6785908341 111.2661895156 10.7645260711 0.0606523965 1
110.4036468863 111.2661895156 10.7603665953 0.1066040482 1
112.1287029386 111.2661895156 10.6590091898 0.1569921086 1
113.8537589908 111.2661895156 10.5047795544 0.2785971406 1
115.578815043 111.2661895156 10.7605722384 0.3110256975 1
117.3038710952 111.2661895156 10.6966528575 0.0722342198 1
119.0289271474 111.2661895156 10.6524779627 0.2010216822 1
120.7539831996 111.2661895156 10.6482609068 0.0363659381 1
122.4790392518 111.2661895156 10.6400406638 0.0900963855 1