TITLE = "B00036"
VARIABLES = "x", "y", "Vx", "Vy", "isValid"
ZONE T="Frame 0", I=101, J=78, F=POINT
-37.9511736035 119.8914697766 0 -0 0
-36.2261175513 119.8914697766 0 -0 0
-34.5010614991 119.8914697766 0 -0 0
-32.7760054469 119.8914697766 0 -0 0
-31.0509493947 119.8914697766 0 -0 0
-29.3258933425 119.8914697766 0 -0 0
-27.6008372903 119.8914697766 0 -0 0
-25.8757812381 119.8914697766 0 -0 0
-24.1507251859 119.8914697766 0 -0 0
-22.4256691337 119.8914697766 0 -0 0
-20.7006130815 119.8914697766 0 -0 0
-18.9755570292 119.8914697766 0 -0 0
-17.250500977 119.8914697766 0 -0 0
-15.5254449248 119.8914697766 0 -0 0
-13.8003888726 119.8914697766 0 -0 0
-12.0753328204 119.8914697766 0 -0 0
-10.3502767682 119.8914697766 0 -0 0
-8.625220716 119.8914697766 0 -0 0
-6.9001646638 119.8914697766 0 -0 0
-5.1751086116 119.8914697766 0 -0 0
-3.4500525594 119.8914697766 0 -0 0
-1.7249965072 119.8914697766 0 -0 0
0.000059545 119.8914697766 0 -0 0
1.7251155972 119.8914697766 0 -0 0
3.4501716495 119.8914697766 0 -0 0
5.1752277017 119.8914697766 0 -0 0
6.9002837539 119.8914697766 0 -0 0
8.6253398061 119.8914697766 0 -0 0
10.3503958583 119.8914697766 0 -0 0
12.0754519105 119.8914697766 0 -0 0
13.8005079627 119.8914697766 0 -0 0
15.5255640149 119.8914697766 0 -0 0
17.2506200671 119.8914697766 0 -0 0
18.9756761193 119.8914697766 0 -0 0
20.7007321715 119.8914697766 0 -0 0
22.4257882237 119.8914697766 0 -0 0
24.150844276 119.8914697766 0 -0 0
25.8759003282 119.8914697766 0 -0 0
27.6009563804 119.8914697766 0 -0 0
29.3260124326 119.8914697766 0 -0 0
31.0510684848 119.8914697766 0 -0 0
32.776124537 119.8914697766 0 -0 0
34.5011805892 119.8914697766 0 -0 0
36.2262366414 119.8914697766 0 -0 0
37.9512926936 119.8914697766 0 -0 0
39.6763487458 119.8914697766 0 -0 0
41.401404798 119.8914697766 0 -0 0
43.1264608502 119.8914697766 0 -0 0
44.8515169024 119.8914697766 0 -0 0
46.5765729547 119.8914697766 0 -0 0
48.3016290069 119.8914697766 0 -0 0
50.0266850591 119.8914697766 0 -0 0
51.7517411113 119.8914697766 0 -0 0
53.4767971635 119.8914697766 0 -0 0
55.2018532157 119.8914697766 0 -0 0
56.9269092679 119.8914697766 0 -0 0
58.6519653201 119.8914697766 0 -0 0
60.3770213723 119.8914697766 0 -0 0
62.1020774245 119.8914697766 0 -0 0
63.8271334767 119.8914697766 0 -0 0
65.5521895289 119.8914697766 0 -0 0
67.2772455812 119.8914697766 0 -0 0
69.0023016334 119.8914697766 0 -0 0
70.7273576856 119.8914697766 0 -0 0
72.4524137378 119.8914697766 0 -0 0
74.17746979 119.8914697766 0 -0 0
75.9025258422 119.8914697766 0 -0 0
77.6275818944 119.8914697766 0 -0 0
79.3526379466 119.8914697766 0 -0 0
81.0776939988 119.8914697766 0 -0 0
82.802750051 119.8914697766 0 -0 0
84.5278061032 119.8914697766 0 -0 0
86.2528621554 119.8914697766 0 -0 0
87.9779182076 119.8914697766 0 -0 0
89.7029742599 119.8914697766 0 -0 0
91.4280303121 119.8914697766 0 -0 0
93.1530863643 119.8914697766 0 -0 0
94.8781424165 119.8914697766 0 -0 0
96.6031984687 119.8914697766 0 -0 0
98.3282545209 119.8914697766 0 -0 0
100.0533105731 119.8914697766 0 -0 0
101.7783666253 119.8914697766 0 -0 0
103.5034226775 119.8914697766 0 -0 0
105.2284787297 119.8914697766 0 -0 0
106.9535347819 119.8914697766 0 -0 0
108.6785908341 119.8914697766 0 -0 0
110.4036468863 119.8914697766 0 -0 0
112.1287029386 119.8914697766 0 -0 0
113.8537589908 119.8914697766 0 -0 0
115.578815043 119.8914697766 0 -0 0
117.3038710952 119.8914697766 0 -0 0
119.0289271474 119.8914697766 0 -0 0
120.7539831996 119.8914697766 0 -0 0
122.4790392518 119.8914697766 0 -0 0
124.204095304 119.8914697766 0 -0 0
125.9291513562 119.8914697766 0 -0 0
127.6542074084 119.8914697766 0 -0 0
129.3792634606 119.8914697766 0 -0 0
131.1043195128 119.8914697766 0 -0 0
132.8293755651 119.8914697766 0 -0 0
134.5544316173 119.8914697766 0 -0 0
-37.9511736035 118.1664137244 0 -0 0
-36.2261175513 118.1664137244 9.2553821384 0.0853186092 1
-34.5010614991 118.1664137244 9.6310675322 0.4626189874 1
-32.7760054469 118.1664137244 9.4486318797 0.479792934 1
-31.0509493947 118.1664137244 9.5252133961 0.6824433101 1
-29.3258933425 118.1664137244 9.5907367938 0.4618690753 1
-27.6008372903 118.1664137244 9.7960701278 0.7186255403 1
-25.8757812381 118.1664137244 0 -0 0
-24.1507251859 118.1664137244 0 -0 0
-22.4256691337 118.1664137244 0 -0 0
-20.7006130815 118.1664137244 0 -0 0
-18.9755570292 118.1664137244 0 -0 0
-17.250500977 118.1664137244 0 -0 0
-15.5254449248 118.1664137244 0 -0 0
-13.8003888726 118.1664137244 0 -0 0
-12.0753328204 118.1664137244 0 -0 0
-10.3502767682 118.1664137244 0 -0 0
-8.625220716 118.1664137244 0 -0 0
-6.9001646638 118.1664137244 0 -0 0
-5.1751086116 118.1664137244 0 -0 0
-3.4500525594 118.1664137244 0 -0 0
-1.7249965072 118.1664137244 9.6469431849 0.7073192788 1
0.000059545 118.1664137244 9.8465568969 0.6641917933 1
1.7251155972 118.1664137244 9.5764322549 0.6952329443 1
3.4501716495 118.1664137244 9.8691173235 0.7154901674 1
5.1752277017 118.1664137244 10.110416277 0.7505550698 1
6.9002837539 118.1664137244 9.5814088196 0.7594374838 1
8.6253398061 118.1664137244 9.7502363781 0.6526277924 1
10.3503958583 118.1664137244 9.9312215608 0.7560361457 1
12.0754519105 118.1664137244 9.7609627258 0.7665102378 1
13.8005079627 118.1664137244 9.8855221647 0.5191530367 1
15.5255640149 118.1664137244 9.951626847 0.8119313302 1
17.2506200671 118.1664137244 9.9354084557 0.8471209894 1
18.9756761193 118.1664137244 9.7213421418 0.9843247413 1
20.7007321715 118.1664137244 9.8066566381 0.9903487152 1
22.4257882237 118.1664137244 10.0143891424 1.0441244041 1
24.150844276 118.1664137244 10.0018723282 0.8701872983 1
25.8759003282 118.1664137244 10.2260425765 0.8668805561 1
27.6009563804 118.1664137244 9.9777462715 0.8124632605 1
29.3260124326 118.1664137244 10.5228761534 0.9950373795 1
31.0510684848 118.1664137244 10.1231058315 0.7711372092 1
32.776124537 118.1664137244 10.3456035154 0.7333413655 1
34.5011805892 118.1664137244 10.4069016314 0.7761219996 1
36.2262366414 118.1664137244 10.162981413 0.8905075854 1
37.9512926936 118.1664137244 10.2213703637 0.9333773315 1
39.6763487458 118.1664137244 10.3232706671 0.8486852485 1
41.401404798 118.1664137244 10.2253379059 0.7535670567 1
43.1264608502 118.1664137244 10.0473359201 0.8019027983 1
44.8515169024 118.1664137244 10.1231058315 0.7352017507 1
46.5765729547 118.1664137244 10.2264374114 0.8417701541 1
48.3016290069 118.1664137244 10.3140139826 0.8175138568 1
50.0266850591 118.1664137244 10.3406982403 0.6402096868 1
51.7517411113 118.1664137244 10.4295141543 0.7078128224 1
53.4767971635 118.1664137244 10.3918129065 0.6918083 1
55.2018532157 118.1664137244 10.2134407631 0.7791586637 1
56.9269092679 118.1664137244 10.4226072857 0.6102899766 1
58.6519653201 118.1664137244 10.5497002484 0.7954113289 1
60.3770213723 118.1664137244 10.3514163623 0.7740641969 1
62.1020774245 118.1664137244 10.6130904409 0.543468285 1
63.8271334767 118.1664137244 10.5240716257 0.5538203622 1
65.5521895289 118.1664137244 10.4161967026 0.8401757341 1
67.2772455812 118.1664137244 10.5007983027 0.7735391214 1
69.0023016334 118.1664137244 10.7656283185 0.7243341947 1
70.7273576856 118.1664137244 10.6563961506 0.7200979454 1
72.4524137378 118.1664137244 0 -0 0
74.17746979 118.1664137244 0 -0 0
75.9025258422 118.1664137244 0 -0 0
77.6275818944 118.1664137244 0 -0 0
79.3526379466 118.1664137244 0 -0 0
81.0776939988 118.1664137244 0 -0 0
82.802750051 118.1664137244 10.7991920257 0.5542206809 1
84.5278061032 118.1664137244 10.77160568 0.5170403958 1
86.2528621554 118.1664137244 10.7587982234 0.409672726 1
87.9779182076 118.1664137244 10.8310639751 0.3837452351 1
89.7029742599 118.1664137244 10.9390842193 0.2920516877 1
91.4280303121 118.1664137244 10.7342142679 0.214455665 1
93.1530863643 118.1664137244 10.7024108662 0.3425206344 1
94.8781424165 118.1664137244 10.773080827 0.2342467636 1
96.6031984687 118.1664137244 10.8531555353 0.3348940147 1
98.3282545209 118.1664137244 10.7134826945 0.2672264442 1
100.0533105731 118.1664137244 10.6865434393 0.0623496381 1
101.7783666253 118.1664137244 10.6999157291 0.2553197047 1
103.5034226775 118.1664137244 10.5920627414 0.1464988231 1
105.2284787297 118.1664137244 10.6616578738 0.164355505 1
106.9535347819 118.1664137244 10.8249988725 -0.0129678583 1
108.6785908341 118.1664137244 10.7108449781 0.2302188994 1
110.4036468863 118.1664137244 10.6035842427 0.1986883177 1
112.1287029386 118.1664137244 10.6488942877 0.1226538121 1
113.8537589908 118.1664137244 10.7924633812 0.1515480484 1
115.578815043 118.1664137244 10.7179602318 0.2096600663 1
117.3038710952 118.1664137244 10.8709039118 -0.0742604905 1
119.0289271474 118.1664137244 10.6880158443 0.1117999656 1
120.7539831996 118.1664137244 10.7056490607 0.1276276349 1
122.4790392518 118.1664137244 10.7630865689 0.2141047006 1
124.204095304 118.1664137244 10.6774073987 0.0422295104 1
125.9291513562 118.1664137244 10.6966418898 0.1554909135 1
127.6542074084 118.1664137244 10.6256977382 -0.0868088367 1
129.3792634606 118.1664137244 10.5879608456 0.0649983221 1
131.1043195128 118.1664137244 10.6708843974 0.1037579467 1
132.8293755651 118.1664137244 10.5488721919 0.134189023 1
134.5544316173 118.1664137244 0 -0 0
-37.9511736035 116.4413576722 0 -0 0
-36.2261175513 116.4413576722 9.4892313252 0.3790606837 1
-34.5010614991 116.4413576722 9.4542856959 0.6308501807 1
-32.7760054469 116.4413576722 9.5007007303 0.4698164983 1
-31.0509493947 116.4413576722 9.430348831 0.5774473915 1
-29.3258933425 116.4413576722 9.6150849451 0.6346778856 1
-27.6008372903 116.4413576722 9.7062753522 0.6275982767 1
-25.8757812381 116.4413576722 0 -0 0
-24.1507251859 116.4413576722 0 -0 0
-22.4256691337 116.4413576722 0 -0 0
-20.7006130815 116.4413576722 0 -0 0
-18.9755570292 116.4413576722 0 -0 0
-17.250500977 116.4413576722 0 -0 0
-15.5254449248 116.4413576722 0 -0 0
-13.8003888726 116.4413576722 0 -0 0
-12.0753328204 116.4413576722 0 -0 0
-10.3502767682 116.4413576722 0 -0 0
-8.625220716 116.4413576722 0 -0 0
-6.9001646638 116.4413576722 0 -0 0
-5.1751086116 116.4413576722 0 -0 0
-3.4500525594 116.4413576722 0 -0 0
-1.7249965072 116.4413576722 9.2519437846 0.7125933407 1
0.000059545 116.4413576722 9.6137770545 0.6744520165 1
1.7251155972 116.4413576722 9.7535431203 0.7028705316 1
3.4501716495 116.4413576722 9.8116359447 0.721464787 1
5.1752277017 116.4413576722 9.9168566999 0.6390196984 1
6.9002837539 116.4413576722 9.5601754768 0.6914258037 1
8.6253398061 116.4413576722 9.9618102968 0.8037302806 1
10.3503958583 116.4413576722 9.7715711715 0.8646527551 1
12.0754519105 116.4413576722 9.5787683613 0.7874145515 1
13.8005079627 116.4413576722 9.6849926551 0.6643124373 1
15.5255640149 116.4413576722 10.0606424042 0.8044500317 1
17.2506200671 116.4413576722 9.7798489945 0.8589098269 1
18.9756761193 116.4413576722 9.7477631762 0.9182570747 1
20.7007321715 116.4413576722 9.8660436436 0.904156808 1
22.4257882237 116.4413576722 10.0086064565 0.9317157347 1
24.150844276 116.4413576722 10.0952644882 0.8394436444 1
25.8759003282 116.4413576722 10.2505223394 0.8432466721 1
27.6009563804 116.4413576722 9.8716289121 0.7904868605 1
29.3260124326 116.4413576722 10.0959252883 0.8749733003 1
31.0510684848 116.4413576722 9.8224555174 0.7945147247 1
32.776124537 116.4413576722 10.4239946916 0.6486300892 1
34.5011805892 116.4413576722 10.3989171926 0.7646004983 1
36.2262366414 116.4413576722 10.22551613 0.8299991391 1
37.9512926936 116.4413576722 10.1264207994 0.8518877981 1
39.6763487458 116.4413576722 10.1690081289 0.8881563984 1
41.401404798 116.4413576722 9.994743365 0.9255491815 1
43.1264608502 116.4413576722 9.7404285699 0.8959996289 1
44.8515169024 116.4413576722 9.8059272904 0.8369827811 1
46.5765729547 116.4413576722 10.1909159812 0.7959240659 1
48.3016290069 116.4413576722 10.4336325015 0.9527461761 1
50.0266850591 116.4413576722 10.3348223294 0.7256695043 1
51.7517411113 116.4413576722 10.4789919009 0.7256379724 1
53.4767971635 116.4413576722 10.4325083189 0.7189998109 1
55.2018532157 116.4413576722 10.2396397029 0.7704380224 1
56.9269092679 116.4413576722 10.3638783384 0.6858446481 1
58.6519653201 116.4413576722 10.4028957024 0.8677812732 1
60.3770213723 116.4413576722 10.5091419315 0.8343889353 1
62.1020774245 116.4413576722 10.6666042775 0.6086366055 1
63.8271334767 116.4413576722 10.7412938768 0.7334578967 1
65.5521895289 116.4413576722 10.7191502202 0.6643549369 1
67.2772455812 116.4413576722 10.6940644954 0.3859305366 1
69.0023016334 116.4413576722 10.7456589958 0.7058359061 1
70.7273576856 116.4413576722 10.9130854388 0.5114290792 1
72.4524137378 116.4413576722 0 -0 0
74.17746979 116.4413576722 0 -0 0
75.9025258422 116.4413576722 0 -0 0
77.6275818944 116.4413576722 0 -0 0
79.3526379466 116.4413576722 0 -0 0
81.0776939988 116.4413576722 0 -0 0
82.802750051 116.4413576722 10.8102830473 0.4126408424 1
84.5278061032 116.4413576722 10.7704348849 0.4241143603 1
86.2528621554 116.4413576722 10.8184265168 0.2656813786 1
87.9779182076 116.4413576722 10.8620694813 0.2947922257 1
89.7029742599 116.4413576722 10.825347095 0.3068881569 1
91.4280303121 116.4413576722 10.8766235339 0.3543382619 1
93.1530863643 116.4413576722 10.6968996293 0.4341853918 1
94.8781424165 116.4413576722 10.6829844415 0.326335146 1
96.6031984687 116.4413576722 10.7295914094 0.2806563142 1
98.3282545209 116.4413576722 10.7435586935 0.4394813889 1
100.0533105731 116.4413576722 10.6966939861 -0.0312892937 1
101.7783666253 116.4413576722 10.8289965758 0.0513134547 1
103.5034226775 116.4413576722 10.7183715181 0.2851242548 1
105.2284787297 116.4413576722 10.7029455385 0.0975927645 1
106.9535347819 116.4413576722 10.8282425508 -0.1008364428 1
108.6785908341 116.4413576722 10.8050268079 0.0583299996 1
110.4036468863 116.4413576722 10.7619870634 -0.133707818 1
112.1287029386 116.4413576722 10.7782602929 0.2702603665 1
113.8537589908 116.4413576722 10.9198360186 -0.3033702877 1
115.578815043 116.4413576722 10.7086103223 0.3440204586 1
117.3038710952 116.4413576722 10.8323691237 -0.1093692634 1
119.0289271474 116.4413576722 10.7512415223 0.1165407262 1
120.7539831996 116.4413576722 10.7334136305 -0.0784446435 1
122.4790392518 116.4413576722 10.7615565837 0.1736094477 1
124.204095304 116.4413576722 10.6248998427 0.1350157085 1
125.9291513562 116.4413576722 10.7171047562 0.1178691811 1
127.6542074084 116.4413576722 10.6000499221 0.0084848372 1
129.3792634606 116.4413576722 10.677519817 0.1042514904 1
131.1043195128 116.4413576722 10.6931596655 -0.0466576933 1
132.8293755651 116.4413576722 10.6238332401 0.0475967971 1
134.5544316173 116.4413576722 0 -0 0
-37.9511736035 114.71630162 0 -0 0
-36.2261175513 114.71630162 9.6686508779 0.4642792133 1
-34.5010614991 114.71630162 9.1219032698 0.3203865746 1
-32.7760054469 114.71630162 9.3854089436 0.3303890583 1
-31.0509493947 114.71630162 0 -0 0
-29.3258933425 114.71630162 9.5679597563 0.4876224549 1
-27.6008372903 114.71630162 9.7210295642 0.3903806548 1
-25.8757812381 114.71630162 0 -0 0
-24.1507251859 114.71630162 0 -0 0
-22.4256691337 114.71630162 0 -0 0
-20.7006130815 114.71630162 0 -0 0
-18.9755570292 114.71630162 0 -0 0
-17.250500977 114.71630162 0 -0 0
-15.5254449248 114.71630162 0 -0 0
-13.8003888726 114.71630162 0 -0 0
-12.0753328204 114.71630162 0 -0 0
-10.3502767682 114.71630162 0 -0 0
-8.625220716 114.71630162 0 -0 0
-6.9001646638 114.71630162 0 -0 0
-5.1751086116 114.71630162 0 -0 0
-3.4500525594 114.71630162 0 -0 0
-1.7249965072 114.71630162 0 -0 0
0.000059545 114.71630162 9.5615985276 0.7205654409 1
1.7251155972 114.71630162 9.6139552786 0.7809847751 1
3.4501716495 114.71630162 9.7065714784 0.855925259 1
5.1752277017 114.71630162 9.7157897762 0.7427653065 1
6.9002837539 114.71630162 9.7905643746 0.8491746792 1
8.6253398061 114.71630162 9.9383477821 0.9510708698 1
10.3503958583 114.71630162 9.7656678416 0.9632984127 1
12.0754519105 114.71630162 9.7309004363 0.7188202158 1
13.8005079627 114.71630162 9.8315668808 0.741336772 1
15.5255640149 114.71630162 10.0029197374 0.8557895345 1
17.2506200671 114.71630162 10.2486523575 0.7648774311 1
18.9756761193 114.71630162 9.8518734583 1.085373682 1
20.7007321715 114.71630162 10.1221489053 0.923336461 1
22.4257882237 114.71630162 9.8839812118 0.8176043398 1
24.150844276 114.71630162 10.206607926 0.8623358421 1
25.8759003282 114.71630162 10.0320168749 0.9837448275 1
27.6009563804 114.71630162 9.8351341043 0.8658016149 1
29.3260124326 114.71630162 9.8468968936 0.8691933563 1
31.0510684848 114.71630162 9.969693285 0.9005457139 1
32.776124537 114.71630162 10.2545282684 0.7263933683 1
34.5011805892 114.71630162 10.3288010974 0.6363339986 1
36.2262366414 114.71630162 10.4308713992 0.878777699 1
37.9512926936 114.71630162 10.3278743322 0.821902282 1
39.6763487458 114.71630162 10.2117435214 0.9496409643 1
41.401404798 114.71630162 10.0381752024 0.839546466 1
43.1264608502 114.71630162 9.8678478197 0.909726996 1
44.8515169024 114.71630162 10.0532940882 0.8899249297 1
46.5765729547 114.71630162 10.1892763197 0.7586286206 1
48.3016290069 114.71630162 10.4701547285 0.9736299255 1
50.0266850591 114.71630162 10.3709469796 0.836686655 1
51.7517411113 114.71630162 10.3720574527 0.8104836023 1
53.4767971635 114.71630162 10.6286014198 0.8407474221 1
55.2018532157 114.71630162 10.3169094384 0.7127359199 1
56.9269092679 114.71630162 10.583162505 0.6864917386 1
58.6519653201 114.71630162 10.5967157608 0.7528952891 1
60.3770213723 114.71630162 10.5242964622 0.8371843115 1
62.1020774245 114.71630162 10.5088458054 0.7850290908 1
63.8271334767 114.71630162 10.6847474889 0.877632952 1
65.5521895289 114.71630162 10.7314449399 0.7726109852 1
67.2772455812 114.71630162 10.7403314667 0.5118732685 1
69.0023016334 114.71630162 10.7972096255 0.4061850178 1
70.7273576856 114.71630162 10.8948846473 0.5789787476 1
72.4524137378 114.71630162 0 -0 0
74.17746979 114.71630162 0 -0 0
75.9025258422 114.71630162 0 -0 0
77.6275818944 114.71630162 0 -0 0
79.3526379466 114.71630162 0 -0 0
81.0776939988 114.71630162 0 -0 0
82.802750051 114.71630162 10.7975030098 0.5048676911 1
84.5278061032 114.71630162 10.875866767 0.3509478915 1
86.2528621554 114.71630162 10.9095182153 0.3201589961 1
87.9779182076 114.71630162 10.9192382824 0.2627365684 1
89.7029742599 114.71630162 10.7945252967 0.3908029087 1
91.4280303121 114.71630162 10.7988300937 0.4169045108 1
93.1530863643 114.71630162 10.7184537754 0.4260405513 1
94.8781424165 114.71630162 10.6631083436 0.295957537 1
96.6031984687 114.71630162 10.6935983709 0.3816339653 1
98.3282545209 114.71630162 10.7982131642 0.5343486959 1
100.0533105731 114.71630162 10.7650004214 0.2437132042 1
101.7783666253 114.71630162 10.847534622 0.0084464505 1
103.5034226775 114.71630162 10.7818330003 0.3554569607 1
105.2284787297 114.71630162 10.8878681024 0.0401648529 1
106.9535347819 114.71630162 10.7921837065 0.1566575957 1
108.6785908341 114.71630162 10.6998691166 0.5269674771 1
110.4036468863 114.71630162 10.8222076093 -0.0693291673 1
112.1287029386 114.71630162 10.7235811451 0.1515878061 1
113.8537589908 114.71630162 10.8289499633 -0.0775165073 1
115.578815043 114.71630162 10.7954602876 -0.12596878 1
117.3038710952 114.71630162 10.8106394955 0.0455362525 1
119.0289271474 114.71630162 10.8580416171 0.0417620149 1
120.7539831996 114.71630162 10.7661437974 -0.2150492883 1
122.4790392518 114.71630162 10.6638404333 0.0195114239 1
124.204095304 114.71630162 10.6912814579 0.2076954885 1
125.9291513562 114.71630162 10.8050898718 -0.2676966816 1
127.6542074084 114.71630162 10.7760557982 0.0829249227 1
129.3792634606 114.71630162 10.6822139651 0.1345331326 1
131.1043195128 114.71630162 10.7412362967 -0.0650531603 1
132.8293755651 114.71630162 10.6953394831 -0.0591087017 1
134.5544316173 114.71630162 0 -0 0
-37.9511736035 112.9912455678 0 -0 0
-36.2261175513 112.9912455678 9.5504800869 0.6713509175 1
-34.5010614991 112.9912455678 9.411772398 0.5441537623 1
-32.7760054469 112.9912455678 9.4659580022 0.3596150656 1
-31.0509493947 112.9912455678 9.429564645 0.5907621012 1
-29.3258933425 112.9912455678 9.5317062364 0.3680807094 1
-27.6008372903 112.9912455678 9.4616532052 0.3297693869 1
-25.8757812381 112.9912455678 0 -0 0
-24.1507251859 112.9912455678 0 -0 0
-22.4256691337 112.9912455678 0 -0 0
-20.7006130815 112.9912455678 0 -0 0
-18.9755570292 112.9912455678 0 -0 0
-17.250500977 112.9912455678 0 -0 0
-15.5254449248 112.9912455678 0 -0 0
-13.8003888726 112.9912455678 0 -0 0
-12.0753328204 112.9912455678 0 -0 0
-10.3502767682 112.9912455678 0 -0 0
-8.625220716 112.9912455678 0 -0 0
-6.9001646638 112.9912455678 0 -0 0
-5.1751086116 112.9912455678 0 -0 0
-3.4500525594 112.9912455678 0 -0 0
-1.7249965072 112.9912455678 0 -0 0
0.000059545 112.9912455678 9.828397234 0.7817977511 1
1.7251155972 112.9912455678 9.5874245678 0.8347371577 1
3.4501716495 112.9912455678 9.7676310483 0.8451961693 1
5.1752277017 112.9912455678 9.5932977367 0.8868005245 1
6.9002837539 112.9912455678 9.8654760685 0.896449302 1
8.6253398061 112.9912455678 9.8336397639 0.9168806364 1
10.3503958583 112.9912455678 9.7074132444 1.0620290694 1
12.0754519105 112.9912455678 9.9960896422 0.8178867564 1
13.8005079627 112.9912455678 10.0618378765 0.7920017652 1
15.5255640149 112.9912455678 9.8993029989 0.8641194538 1
17.2506200671 112.9912455678 9.9349368474 0.7466985749 1
18.9756761193 112.9912455678 9.7483828477 1.0634342977 1
20.7007321715 112.9912455678 9.9859473211 0.8778591595 1
22.4257882237 112.9912455678 9.7540531153 0.888020674 1
24.150844276 112.9912455678 9.9270346659 0.9405816972 1
25.8759003282 112.9912455678 9.9465268964 0.8602944909 1
27.6009563804 112.9912455678 9.9582458152 0.7605465859 1
29.3260124326 112.9912455678 10.1521810338 0.9731062209 1
31.0510684848 112.9912455678 10.153077638 0.9271504563 1
32.776124537 112.9912455678 10.2150173607 0.9200585088 1
34.5011805892 112.9912455678 10.3295030261 0.8310054197 1
36.2262366414 112.9912455678 10.3840862072 0.8656466971 1
37.9512926936 112.9912455678 10.3371474682 0.9428999812 1
39.6763487458 112.9912455678 10.4121743222 0.9231390435 1
41.401404798 112.9912455678 10.1471578566 0.7904306513 1
43.1264608502 112.9912455678 10.3094706395 0.9057320347 1
44.8515169024 112.9912455678 10.3507747556 0.8724685665 1
46.5765729547 112.9912455678 10.1325763849 0.7908227443 1
48.3016290069 112.9912455678 10.5547042322 0.9622523744 1
50.0266850591 112.9912455678 10.3495929928 0.829098422 1
51.7517411113 112.9912455678 10.3065779256 0.8555482465 1
53.4767971635 112.9912455678 10.4902611466 0.8582641073 1
55.2018532157 112.9912455678 10.4645036542 0.7202816533 1
56.9269092679 112.9912455678 10.7544468139 0.7751403962 1
58.6519653201 112.9912455678 10.7588146748 0.6977184847 1
60.3770213723 112.9912455678 10.8037079497 0.795590924 1
62.1020774245 112.9912455678 10.7534103723 0.7583420911 1
63.8271334767 112.9912455678 10.7505697547 0.8611239183 1
65.5521895289 112.9912455678 10.8044619747 0.9233638801 1
67.2772455812 112.9912455678 10.6295610879 0.628342705 1
69.0023016334 112.9912455678 10.8311983286 0.7510403877 1
70.7273576856 112.9912455678 10.7664646007 0.5430062734 1
72.4524137378 112.9912455678 10.3103041798 0.6821677482 1
74.17746979 112.9912455678 0 -0 0
75.9025258422 112.9912455678 0 -0 0
77.6275818944 112.9912455678 0 -0 0
79.3526379466 112.9912455678 0 -0 0
81.0776939988 112.9912455678 0 -0 0
82.802750051 112.9912455678 10.8121831902 0.5124723756 1
84.5278061032 112.9912455678 10.9698484375 0.30986587 1
86.2528621554 112.9912455678 11.0012405528 0.2670317687 1
87.9779182076 112.9912455678 11.0453770608 0.4334820922 1
89.7029742599 112.9912455678 10.8045140709 0.3797831767 1
91.4280303121 112.9912455678 10.7809062351 0.4819110586 1
93.1530863643 112.9912455678 10.8089614472 0.3755551532 1
94.8781424165 112.9912455678 10.7175270102 0.2692965855 1
96.6031984687 112.9912455678 10.7553845467 0.4255853945 1
98.3282545209 112.9912455678 10.7907771072 0.2887202683 1
100.0533105731 112.9912455678 10.8304854323 0.1983524339 1
101.7783666253 112.9912455678 10.8018900641 0.2753205594 1
103.5034226775 112.9912455678 10.8020490948 0.2155112999 1
105.2284787297 112.9912455678 10.8944404581 0.0766171612 1
106.9535347819 112.9912455678 10.8499118571 0.211985205 1
108.6785908341 112.9912455678 10.679203349 0.2008187809 1
110.4036468863 112.9912455678 10.7646275217 0.0317156606 1
112.1287029386 112.9912455678 10.6485049367 0.0042595555 1
113.8537589908 112.9912455678 10.7461991518 -0.1097065182 1
115.578815043 112.9912455678 10.9267209519 -0.1489226706 1
117.3038710952 112.9912455678 10.8881477771 0.1921639454 1
119.0289271474 112.9912455678 10.8375348802 -0.06581404 1
120.7539831996 112.9912455678 10.7735277581 -0.081049457 1
122.4790392518 112.9912455678 10.6458178659 -0.0437677213 1
124.204095304 112.9912455678 10.7336110479 0.2604443325 1
125.9291513562 112.9912455678 10.7442112679 -0.0216939834 1
127.6542074084 112.9912455678 10.8267756295 -0.2228870349 1
129.3792634606 112.9912455678 10.7396076028 0.0159085556 1
131.1043195128 112.9912455678 10.6597056347 -0.0340668475 1
132.8293755651 112.9912455678 10.6585787101 0.0596982122 1
134.5544316173 112.9912455678 0 -0 0
-37.9511736035 111.2661895156 0 -0 0
-36.2261175513 111.2661895156 9.5796594817 0.5709038258 1
-34.5010614991 111.2661895156 9.4548423034 0.5135403491 1
-32.7760054469 111.2661895156 9.5229513212 0.4222251851 1
-31.0509493947 111.2661895156 9.5312730148 0.4334217702 1
-29.3258933425 111.2661895156 9.5758509702 0.5488369427 1
-27.6008372903 111.2661895156 9.2510691156 0.4465719654 1
-25.8757812381 111.2661895156 0 -0 0
-24.1507251859 111.2661895156 0 -0 0
-22.4256691337 111.2661895156 0 -0 0
-20.7006130815 111.2661895156 0 -0 0
-18.9755570292 111.2661895156 0 -0 0
-17.250500977 111.2661895156 0 -0 0
-15.5254449248 111.2661895156 0 -0 0
-13.8003888726 111.2661895156 0 -0 0
-12.0753328204 111.2661895156 0 -0 0
-10.3502767682 111.2661895156 0 -0 0
-8.625220716 111.2661895156 0 -0 0
-6.9001646638 111.2661895156 0 -0 0
-5.1751086116 111.2661895156 0 -0 0
-3.4500525594 111.2661895156 0 -0 0
-1.7249965072 111.2661895156 9.5991928409 0.8958049534 1
0.000059545 111.2661895156 9.71296561 0.8462984167 1
1.7251155972 111.2661895156 9.6480728514 0.8469016367 1
3.4501716495 111.2661895156 9.6666081558 0.682446052 1
5.1752277017 111.2661895156 9.5227511619 0.7629443853 1
6.9002837539 111.2661895156 9.6661475151 0.8229524332 1
8.6253398061 111.2661895156 9.9252304898 0.8774314217 1
10.3503958583 111.2661895156 9.634717013 1.1910139492 1
12.0754519105 111.2661895156 10.005039233 0.8421307152 1
13.8005079627 111.2661895156 10.248487843 0.8010774837 1
15.5255640149 111.2661895156 9.9035337644 0.9209194682 1
17.2506200671 111.2661895156 9.8888782612 0.9030490768 1
18.9756761193 111.2661895156 9.8775569192 1.002518678 1
20.7007321715 111.2661895156 9.9929090279 0.9019920709 1
22.4257882237 111.2661895156 10.0916177493 1.0049096226 1
24.150844276 111.2661895156 9.8917709751 0.95311085 1
25.8759003282 111.2661895156 9.8979731731 0.8372857621 1
27.6009563804 111.2661895156 9.9177149174 0.857670484 1
29.3260124326 111.2661895156 10.1503823415 0.9053838123 1
31.0510684848 111.2661895156 10.2654438078 1.0398319456 1
32.776124537 111.2661895156 10.2197032831 1.0659184672 1
34.5011805892 111.2661895156 10.3651368746 1.0051495396 1
36.2262366414 111.2661895156 10.172194227 0.8618656047 1
37.9512926936 111.2661895156 10.3235229227 1.0374615654 1
39.6763487458 111.2661895156 10.4271725641 1.0190455341 1
41.401404798 111.2661895156 10.204801008 0.9004182152 1
43.1264608502 111.2661895156 10.3384060044 1.1542189024 1
44.8515169024 111.2661895156 10.1805899522 1.0551825228 1
46.5765729547 111.2661895156 10.4129201215 0.7897972704 1
48.3016290069 111.2661895156 10.4577229134 0.7748278186 1
50.0266850591 111.2661895156 10.4486362272 0.8940240836 1
51.7517411113 111.2661895156 10.4190400622 1.0127884979 1
53.4767971635 111.2661895156 10.4935486955 0.9652177489 1
55.2018532157 111.2661895156 10.5412085565 0.65923168 1
56.9269092679 111.2661895156 10.6643339769 0.8443187585 1
58.6519653201 111.2661895156 10.6118977106 0.6769540084 1
60.3770213723 111.2661895156 10.7489876732 0.9419855545 1
62.1020774245 111.2661895156 10.7806128508 0.8319061368 1
63.8271334767 111.2661895156 10.7904069495 0.5588915228 1
65.5521895289 111.2661895156 10.6532895678 0.6227245336 1
67.2772455812 111.2661895156 10.6930774082 0.8205121342 1
69.0023016334 111.2661895156 10.8385905151 0.6663757238 1
70.7273576856 111.2661895156 10.7078316202 0.6649046896 1
72.4524137378 111.2661895156 10.6568595332 0.7327683066 1
74.17746979 111.2661895156 0 -0 0
75.9025258422 111.2661895156 0 -0 0
77.6275818944 111.2661895156 0 -0 0
79.3526379466 111.2661895156 0 -0 0
81.0776939988 111.2661895156 0 -0 0
82.802750051 111.2661895156 10.7994360556 0.4798326917 1
84.5278061032 111.2661895156 10.873006956 0.4296351939 1
86.2528621554 111.2661895156 11.0164444378 0.2443753752 1
87.9779182076 111.2661895156 10.9443130396 0.3573200878 1
89.7029742599 111.2661895156 10.8069187251 0.2727815517 1
91.4280303121 111.2661895156 10.6977880078 0.4517898181 1
93.1530863643 111.2661895156 10.8870702069 0.5717003503 1
94.8781424165 111.2661895156 10.8961404416 0.3047316455 1
96.6031984687 111.2661895156 11.0112951328 0.3515483695 1
98.3282545209 111.2661895156 10.9329779881 0.2971461545 1
100.0533105731 111.2661895156 10.8820497716 0.0702545615 1
101.7783666253 111.2661895156 10.8713919716 0.1082738708 1
103.5034226775 111.2661895156 10.9003849166 0.1801680938 1
105.2284787297 111.2661895156 10.9092001539 -0.0556717189 1
106.9535347819 111.2661895156 10.9315576793 -0.0360122319 1
108.6785908341 111.2661895156 10.9135460795 0.1329496802 1
110.4036468863 111.2661895156 10.8447131977 0.051693209 1
112.1287029386 111.2661895156 10.7631249556 0.1181584524 1
113.8537589908 111.2661895156 10.7856607051 -0.108899026 1
115.578815043 111.2661895156 10.8562182476 -0.2327853262 1
117.3038710952 111.2661895156 10.822487284 0.0320186415 1
119.0289271474 111.2661895156 10.8929543434 -0.0455376235 1
120.7539831996 111.2661895156 10.7292815737 0.1368939162 1
122.4790392518 111.2661895156 10.7138693036 -0.1853557855 1