TITLE = "B00066"
VARIABLES = "x", "y", "Vx", "Vy", "isValid"
ZONE T="Frame 0", I=101, J=78, F=POINT
-37.9511736035 119.8914697766 0 -0 0
-36.2261175513 119.8914697766 0 -0 0
-34.5010614991 119.8914697766 0 -0 0
-32.7760054469 119.8914697766 0 -0 0
-31.0509493947 119.8914697766 0 -0 0
-29.3258933425 119.8914697766 0 -0 0
-27.6008372903 119.8914697766 0 -0 0
-25.8757812381 119.8914697766 0 -0 0
-24.1507251859 119.8914697766 0 -0 0
-22.4256691337 119.8914697766 0 -0 0
-20.7006130815 119.8914697766 0 -0 0
-18.9755570292 119.8914697766 0 -0 0
-17.250500977 119.8914697766 0 -0 0
-15.5254449248 119.8914697766 0 -0 0
-13.8003888726 119.8914697766 0 -0 0
-12.0753328204 119.8914697766 0 -0 0
-10.3502767682 119.8914697766 0 -0 0
-8.625220716 119.8914697766 0 -0 0
-6.9001646638 119.8914697766 0 -0 0
-5.1751086116 119.8914697766 0 -0 0
-3.4500525594 119.8914697766 0 -0 0
-1.7249965072 119.8914697766 0 -0 0
0.000059545 119.8914697766 0 -0 0
1.7251155972 119.8914697766 0 -0 0
3.4501716495 119.8914697766 0 -0 0
5.1752277017 119.8914697766 0 -0 0
6.9002837539 119.8914697766 0 -0 0
8.6253398061 119.8914697766 0 -0 0
10.3503958583 119.8914697766 0 -0 0
12.0754519105 119.8914697766 0 -0 0
13.8005079627 119.8914697766 0 -0 0
15.5255640149 119.8914697766 0 -0 0
17.2506200671 119.8914697766 0 -0 0
18.9756761193 119.8914697766 0 -0 0
20.7007321715 119.8914697766 0 -0 0
22.4257882237 119.8914697766 0 -0 0
24.150844276 119.8914697766 0 -0 0
25.8759003282 119.8914697766 0 -0 0
27.6009563804 119.8914697766 0 -0 0
29.3260124326 119.8914697766 0 -0 0
31.0510684848 119.8914697766 0 -0 0
32.776124537 119.8914697766 0 -0 0
34.5011805892 119.8914697766 0 -0 0
36.2262366414 119.8914697766 0 -0 0
37.9512926936 119.8914697766 0 -0 0
39.6763487458 119.8914697766 0 -0 0
41.401404798 119.8914697766 0 -0 0
43.1264608502 119.8914697766 0 -0 0
44.8515169024 119.8914697766 0 -0 0
46.5765729547 119.8914697766 0 -0 0
48.3016290069 119.8914697766 0 -0 0
50.0266850591 119.8914697766 0 -0 0
51.7517411113 119.8914697766 0 -0 0
53.4767971635 119.8914697766 0 -0 0
55.2018532157 119.8914697766 0 -0 0
56.9269092679 119.8914697766 0 -0 0
58.6519653201 119.8914697766 0 -0 0
60.3770213723 119.8914697766 0 -0 0
62.1020774245 119.8914697766 0 -0 0
63.8271334767 119.8914697766 0 -0 0
65.5521895289 119.8914697766 0 -0 0
67.2772455812 119.8914697766 0 -0 0
69.0023016334 119.8914697766 0 -0 0
70.7273576856 119.8914697766 0 -0 0
72.4524137378 119.8914697766 0 -0 0
74.17746979 119.8914697766 0 -0 0
75.9025258422 119.8914697766 0 -0 0
77.6275818944 119.8914697766 0 -0 0
79.3526379466 119.8914697766 0 -0 0
81.0776939988 119.8914697766 0 -0 0
82.802750051 119.8914697766 0 -0 0
84.5278061032 119.8914697766 0 -0 0
86.2528621554 119.8914697766 0 -0 0
87.9779182076 119.8914697766 0 -0 0
89.7029742599 119.8914697766 0 -0 0
91.4280303121 119.8914697766 0 -0 0
93.1530863643 119.8914697766 0 -0 0
94.8781424165 119.8914697766 0 -0 0
96.6031984687 119.8914697766 0 -0 0
98.3282545209 119.8914697766 0 -0 0
100.0533105731 119.8914697766 0 -0 0
101.7783666253 119.8914697766 0 -0 0
103.5034226775 119.8914697766 0 -0 0
105.2284787297 119.8914697766 0 -0 0
106.9535347819 119.8914697766 0 -0 0
108.6785908341 119.8914697766 0 -0 0
110.4036468863 119.8914697766 0 -0 0
112.1287029386 119.8914697766 0 -0 0
113.8537589908 119.8914697766 0 -0 0
115.578815043 119.8914697766 0 -0 0
117.3038710952 119.8914697766 0 -0 0
119.0289271474 119.8914697766 0 -0 0
120.7539831996 119.8914697766 0 -0 0
122.4790392518 119.8914697766 0 -0 0
124.204095304 119.8914697766 0 -0 0
125.9291513562 119.8914697766 0 -0 0
127.6542074084 119.8914697766 0 -0 0
129.3792634606 119.8914697766 0 -0 0
131.1043195128 119.8914697766 0 -0 0
132.8293755651 119.8914697766 0 -0 0
134.5544316173 119.8914697766 0 -0 0
-37.9511736035 118.1664137244 0 -0 0
-36.2261175513 118.1664137244 9.4321941357 0.3892825202 1
-34.5010614991 118.1664137244 9.3171957333 0.4598496594 1
-32.7760054469 118.1664137244 9.3870431213 0.5764123208 1
-31.0509493947 118.1664137244 9.3877779529 0.6779136765 1
-29.3258933425 118.1664137244 9.3306694737 0.3955998784 1
-27.6008372903 118.1664137244 9.3446093387 0.4918216885 1
-25.8757812381 118.1664137244 0 -0 0
-24.1507251859 118.1664137244 0 -0 0
-22.4256691337 118.1664137244 0 -0 0
-20.7006130815 118.1664137244 0 -0 0
-18.9755570292 118.1664137244 0 -0 0
-17.250500977 118.1664137244 0 -0 0
-15.5254449248 118.1664137244 0 -0 0
-13.8003888726 118.1664137244 0 -0 0
-12.0753328204 118.1664137244 0 -0 0
-10.3502767682 118.1664137244 0 -0 0
-8.625220716 118.1664137244 0 -0 0
-6.9001646638 118.1664137244 0 -0 0
-5.1751086116 118.1664137244 0 -0 0
-3.4500525594 118.1664137244 0 -0 0
-1.7249965072 118.1664137244 9.4717708492 0.6064279979 1
0.000059545 118.1664137244 9.5298691575 0.7180250623 1
1.7251155972 118.1664137244 9.7950611053 0.8773971478 1
3.4501716495 118.1664137244 9.8754045207 0.7796549493 1
5.1752277017 118.1664137244 9.5524570032 0.7256599077 1
6.9002837539 118.1664137244 9.7632248007 0.7159028247 1
8.6253398061 118.1664137244 9.7592983871 0.7417124135 1
10.3503958583 118.1664137244 10.0919029079 0.7064144489 1
12.0754519105 118.1664137244 9.8631207687 0.6460184209 1
13.8005079627 118.1664137244 9.7773456317 0.6635817186 1
15.5255640149 118.1664137244 10.1884208441 0.7905951659 1
17.2506200671 118.1664137244 9.9747521069 0.7911380639 1
18.9756761193 118.1664137244 10.1506208876 0.6679372409 1
20.7007321715 118.1664137244 10.0858871597 0.760994888 1
22.4257882237 118.1664137244 10.0909130787 0.7530241588 1
24.150844276 118.1664137244 10.1413175906 0.8194907731 1
25.8759003282 118.1664137244 9.9514623325 0.8694195638 1
27.6009563804 118.1664137244 9.7092695168 0.6630840621 1
29.3260124326 118.1664137244 9.8400009926 0.7817895254 1
31.0510684848 118.1664137244 10.1716074585 0.8861013377 1
32.776124537 118.1664137244 10.1329081559 1.0019648124 1
34.5011805892 118.1664137244 10.1522961939 0.8468372018 1
36.2262366414 118.1664137244 10.0775298213 0.8543980157 1
37.9512926936 118.1664137244 10.3348442647 0.7734623479 1
39.6763487458 118.1664137244 10.3196540892 0.7797303518 1
41.401404798 118.1664137244 10.2383839086 0.7299112375 1
43.1264608502 118.1664137244 9.9051652002 0.8995764491 1
44.8515169024 118.1664137244 10.1196976387 0.9059102588 1
46.5765729547 118.1664137244 10.2882537482 0.8023401328 1
48.3016290069 118.1664137244 10.420131342 0.6429598215 1
50.0266850591 118.1664137244 10.3961752836 0.7164251584 1
51.7517411113 118.1664137244 10.3207069823 0.7043114047 1
53.4767971635 118.1664137244 10.387102307 0.8927915955 1
55.2018532157 118.1664137244 10.5835957266 0.9503209577 1
56.9269092679 118.1664137244 10.5059338981 1.0413838661 1
58.6519653201 118.1664137244 9.8906550182 0.703039159 1
60.3770213723 118.1664137244 10.3475859155 0.7530392393 1
62.1020774245 118.1664137244 10.5588554823 0.7422772467 1
63.8271334767 118.1664137244 10.7193805406 0.7193384366 1
65.5521895289 118.1664137244 10.4812759111 0.7278013385 1
67.2772455812 118.1664137244 10.3812346219 0.6327229045 1
69.0023016334 118.1664137244 10.5457299643 0.5218373655 1
70.7273576856 118.1664137244 10.797829297 0.3152372696 1
72.4524137378 118.1664137244 0 -0 0
74.17746979 118.1664137244 0 -0 0
75.9025258422 118.1664137244 0 -0 0
77.6275818944 118.1664137244 0 -0 0
79.3526379466 118.1664137244 0 -0 0
81.0776939988 118.1664137244 0 -0 0
82.802750051 118.1664137244 10.7672131419 0.4572270235 1
84.5278061032 118.1664137244 10.7932036966 0.5527852916 1
86.2528621554 118.1664137244 10.6775828809 0.5840224891 1
87.9779182076 118.1664137244 10.7011468462 0.2869023827 1
89.7029742599 118.1664137244 10.8392321218 0.1503155604 1
91.4280303121 118.1664137244 10.7926882177 0.4889728451 1
93.1530863643 118.1664137244 10.7550418081 0.1487389627 1
94.8781424165 118.1664137244 10.6475205914 0.3184590126 1
96.6031984687 118.1664137244 10.640065341 0.3899008207 1
98.3282545209 118.1664137244 10.5962496363 0.2045272128 1
100.0533105731 118.1664137244 10.6801904363 0.283643624 1
101.7783666253 118.1664137244 10.5883940672 0.4120664125 1
103.5034226775 118.1664137244 10.6433309545 0.3374028614 1
105.2284787297 118.1664137244 10.5963318936 0.2621511708 1
106.9535347819 118.1664137244 10.5785177113 0.2121853644 1
108.6785908341 118.1664137244 10.7066059869 0.3242403276 1
110.4036468863 118.1664137244 10.6930006348 0.1895947767 1
112.1287029386 118.1664137244 10.6351107116 0.0975982483 1
113.8537589908 118.1664137244 10.576779341 0.0718983359 1
115.578815043 118.1664137244 10.5593188649 0.1658676678 1
117.3038710952 118.1664137244 10.5941932046 0.2019827213 1
119.0289271474 118.1664137244 10.6085443559 0.3225746179 1
120.7539831996 118.1664137244 10.5134960829 0.2133986591 1
122.4790392518 118.1664137244 10.5909166234 0.1283103703 1
124.204095304 118.1664137244 10.481731068 0.0732034846 1
125.9291513562 118.1664137244 10.6037213381 0.0804434951 1
127.6542074084 118.1664137244 10.4919529045 0.1403843662 1
129.3792634606 118.1664137244 10.5839302395 0.1444972296 1
131.1043195128 118.1664137244 10.4974559157 0.0626731834 1
132.8293755651 118.1664137244 10.6405863037 0.144997628 1
134.5544316173 118.1664137244 0 -0 0
-37.9511736035 116.4413576722 0 -0 0
-36.2261175513 116.4413576722 9.6349912039 0.4379980162 1
-34.5010614991 116.4413576722 9.3605672487 0.6777889197 1
-32.7760054469 116.4413576722 9.3883345604 0.5249782222 1
-31.0509493947 116.4413576722 9.2448394985 0.3488064606 1
-29.3258933425 116.4413576722 9.2324981664 0.3652387208 1
-27.6008372903 116.4413576722 9.2498763852 0.6049062384 1
-25.8757812381 116.4413576722 0 -0 0
-24.1507251859 116.4413576722 0 -0 0
-22.4256691337 116.4413576722 0 -0 0
-20.7006130815 116.4413576722 0 -0 0
-18.9755570292 116.4413576722 0 -0 0
-17.250500977 116.4413576722 0 -0 0
-15.5254449248 116.4413576722 0 -0 0
-13.8003888726 116.4413576722 0 -0 0
-12.0753328204 116.4413576722 0 -0 0
-10.3502767682 116.4413576722 0 -0 0
-8.625220716 116.4413576722 0 -0 0
-6.9001646638 116.4413576722 0 -0 0
-5.1751086116 116.4413576722 0 -0 0
-3.4500525594 116.4413576722 0 -0 0
-1.7249965072 116.4413576722 9.7747819468 0.8338666017 1
0.000059545 116.4413576722 9.6154386513 0.7788090704 1
1.7251155972 116.4413576722 9.7422409717 0.9085507171 1
3.4501716495 116.4413576722 9.8276898215 0.7142069541 1
5.1752277017 116.4413576722 9.8697452207 0.7491087128 1
6.9002837539 116.4413576722 9.7974575337 0.7668159607 1
8.6253398061 116.4413576722 9.8706500506 0.7707999544 1
10.3503958583 116.4413576722 9.9531979609 0.7323542783 1
12.0754519105 116.4413576722 9.94792527 0.7547762386 1
13.8005079627 116.4413576722 9.8678642712 0.7123794718 1
15.5255640149 116.4413576722 10.0342679822 0.8138424407 1
17.2506200671 116.4413576722 10.220758918 0.7681540123 1
18.9756761193 116.4413576722 10.0285702954 0.713274705 1
20.7007321715 116.4413576722 9.9245998507 0.8742247592 1
22.4257882237 116.4413576722 10.2165500878 0.7475773567 1
24.150844276 116.4413576722 10.2403827602 0.7626345496 1
25.8759003282 116.4413576722 9.9418464579 0.8149254948 1
27.6009563804 116.4413576722 9.8089159711 0.904248662 1
29.3260124326 116.4413576722 9.8958948061 1.0277867397 1
31.0510684848 116.4413576722 10.1057385803 0.9680857856 1
32.776124537 116.4413576722 10.2704203725 1.0666217668 1
34.5011805892 116.4413576722 9.9890374525 0.7386044597 1
36.2262366414 116.4413576722 10.0776532072 0.8821461341 1
37.9512926936 116.4413576722 10.0653502618 0.8212661592 1
39.6763487458 116.4413576722 9.9505520187 0.7133912362 1
41.401404798 116.4413576722 10.2799896347 0.7837445064 1
43.1264608502 116.4413576722 10.093405474 0.8568383147 1
44.8515169024 116.4413576722 10.1981354274 0.8948576239 1
46.5765729547 116.4413576722 10.37966625 0.9753230543 1
48.3016290069 116.4413576722 10.5124514156 0.7325900825 1
50.0266850591 116.4413576722 10.3482576832 0.7124137456 1
51.7517411113 116.4413576722 10.3257959653 0.670282944 1
53.4767971635 116.4413576722 10.6355987713 0.8403018619 1
55.2018532157 116.4413576722 10.5545835882 0.9322325845 1
56.9269092679 116.4413576722 10.4909959782 1.0738055682 1
58.6519653201 116.4413576722 10.1813439771 0.6981900931 1
60.3770213723 116.4413576722 10.3909163023 0.7013405464 1
62.1020774245 116.4413576722 10.7877253626 0.6477828393 1
63.8271334767 116.4413576722 10.5337697575 0.7530118202 1
65.5521895289 116.4413576722 10.5567771154 0.758586121 1
67.2772455812 116.4413576722 10.6234740501 0.6920824909 1
69.0023016334 116.4413576722 10.7570187245 0.5864408527 1
70.7273576856 116.4413576722 10.6996387963 0.7380684165 1
72.4524137378 116.4413576722 0 -0 0
74.17746979 116.4413576722 0 -0 0
75.9025258422 116.4413576722 0 -0 0
77.6275818944 116.4413576722 0 -0 0
79.3526379466 116.4413576722 0 -0 0
81.0776939988 116.4413576722 0 -0 0
82.802750051 116.4413576722 10.6704840787 0.6822554893 1
84.5278061032 116.4413576722 10.8228053454 0.3681259509 1
86.2528621554 116.4413576722 10.7655570289 0.5383587378 1
87.9779182076 116.4413576722 10.6939109485 0.1800035793 1
89.7029742599 116.4413576722 10.8546553595 0.014783002 1
91.4280303121 116.4413576722 10.8858116707 0.2035716575 1
93.1530863643 116.4413576722 10.7542493964 0.2661008906 1
94.8781424165 116.4413576722 10.6642078491 0.2241126682 1
96.6031984687 116.4413576722 10.741828549 0.3290564906 1
98.3282545209 116.4413576722 10.6388972878 0.2284503682 1
100.0533105731 116.4413576722 10.7945307805 0.3713038234 1
101.7783666253 116.4413576722 10.5626146395 0.2450279496 1
103.5034226775 116.4413576722 10.5226924455 0.2346429695 1
105.2284787297 116.4413576722 10.5655210629 0.3022515889 1
106.9535347819 116.4413576722 10.6073872704 0.4200179484 1
108.6785908341 116.4413576722 10.8085309675 0.3644641316 1
110.4036468863 116.4413576722 10.7385519678 0.2748366125 1
112.1287029386 116.4413576722 10.7003434669 0.2839767659 1
113.8537589908 116.4413576722 10.5352284531 0.07644305 1
115.578815043 116.4413576722 10.5858331243 0.0646473578 1
117.3038710952 116.4413576722 10.6389274488 0.177544087 1
119.0289271474 116.4413576722 10.6265970843 0.3262926464 1
120.7539831996 116.4413576722 10.5809168816 0.2657992806 1
122.4790392518 116.4413576722 10.4568701797 0.2263953074 1
124.204095304 116.4413576722 10.5490888027 0.1094775688 1
125.9291513562 116.4413576722 10.6089172556 0.1209935863 1
127.6542074084 116.4413576722 10.4946180399 0.0289915741 1
129.3792634606 116.4413576722 10.575934833 0.1110034411 1
131.1043195128 116.4413576722 10.4364100553 0.0461435854 1
132.8293755651 116.4413576722 10.658611613 0.0887007539 1
134.5544316173 116.4413576722 0 -0 0
-37.9511736035 114.71630162 0 -0 0
-36.2261175513 114.71630162 9.5155618767 0.4338220889 1
-34.5010614991 114.71630162 9.2727384219 0.7141877607 1
-32.7760054469 114.71630162 9.3984741397 0.4655843619 1
-31.0509493947 114.71630162 9.6682478173 0.7620820549 1
-29.3258933425 114.71630162 9.3265456427 0.4418750754 1
-27.6008372903 114.71630162 9.1877008584 0.504871804 1
-25.8757812381 114.71630162 0 -0 0
-24.1507251859 114.71630162 0 -0 0
-22.4256691337 114.71630162 0 -0 0
-20.7006130815 114.71630162 0 -0 0
-18.9755570292 114.71630162 0 -0 0
-17.250500977 114.71630162 0 -0 0
-15.5254449248 114.71630162 0 -0 0
-13.8003888726 114.71630162 0 -0 0
-12.0753328204 114.71630162 0 -0 0
-10.3502767682 114.71630162 0 -0 0
-8.625220716 114.71630162 0 -0 0
-6.9001646638 114.71630162 0 -0 0
-5.1751086116 114.71630162 0 -0 0
-3.4500525594 114.71630162 0 -0 0
-1.7249965072 114.71630162 9.4261509684 0.654085117 1
0.000059545 114.71630162 9.628906908 0.7271679576 1
1.7251155972 114.71630162 9.7559614839 0.7302087346 1
3.4501716495 114.71630162 9.6863608677 0.6194479524 1
5.1752277017 114.71630162 9.7420271028 0.980720502 1
6.9002837539 114.71630162 9.7515003981 0.8505566013 1
8.6253398061 114.71630162 9.8368148944 0.7576525011 1
10.3503958583 114.71630162 9.6747132386 0.6147551753 1
12.0754519105 114.71630162 9.9201469906 0.8610567415 1
13.8005079627 114.71630162 9.8807293079 0.9226523547 1
15.5255640149 114.71630162 9.8500363793 0.9613077868 1
17.2506200671 114.71630162 10.0204981155 0.7256557948 1
18.9756761193 114.71630162 9.8543274668 0.74817098 1
20.7007321715 114.71630162 10.1104080512 0.9730993661 1
22.4257882237 114.71630162 9.8346241092 0.9335747489 1
24.150844276 114.71630162 10.0059989011 0.888861069 1
25.8759003282 114.71630162 10.183093315 0.9108895654 1
27.6009563804 114.71630162 10.2893861566 1.0718725224 1
29.3260124326 114.71630162 9.9876829495 1.071463978 1
31.0510684848 114.71630162 10.1736913093 0.8365824624 1
32.776124537 114.71630162 10.3542569799 1.0210855143 1
34.5011805892 114.71630162 10.2020837763 0.7408391155 1
36.2262366414 114.71630162 10.2573414669 0.9213897056 1
37.9512926936 114.71630162 9.9781959446 0.8730923508 1
39.6763487458 114.71630162 9.9769017636 0.7838870857 1
41.401404798 114.71630162 10.387132468 1.0352488449 1
43.1264608502 114.71630162 10.1790681927 0.7977830801 1
44.8515169024 114.71630162 10.2469085034 0.8958830978 1
46.5765729547 114.71630162 10.4116149728 0.8470113131 1
48.3016290069 114.71630162 10.2088754847 0.8001753957 1
50.0266850591 114.71630162 10.1209150462 0.8329137883 1
51.7517411113 114.71630162 10.43765214 0.6447831909 1
53.4767971635 114.71630162 10.667070402 0.6705968926 1
55.2018532157 114.71630162 10.4847663612 0.8645403368 1
56.9269092679 114.71630162 10.3814868775 0.8218351053 1
58.6519653201 114.71630162 10.4760251555 0.7535739115 1
60.3770213723 114.71630162 10.4741661412 0.7459856786 1
62.1020774245 114.71630162 10.5027121551 0.6358212616 1
63.8271334767 114.71630162 10.5326620263 0.7656602461 1
65.5521895289 114.71630162 10.6461002825 0.7759273241 1
67.2772455812 114.71630162 10.7361719909 0.684464097 1
69.0023016334 114.71630162 10.5373534325 0.7081651577 1
70.7273576856 114.71630162 10.7237840463 0.7046993849 1
72.4524137378 114.71630162 0 -0 0
74.17746979 114.71630162 0 -0 0
75.9025258422 114.71630162 0 -0 0
77.6275818944 114.71630162 0 -0 0
79.3526379466 114.71630162 0 -0 0
81.0776939988 114.71630162 0 -0 0
82.802750051 114.71630162 10.7314504237 0.696565512 1
84.5278061032 114.71630162 10.6733685668 0.1806383312 1
86.2528621554 114.71630162 10.8143630078 0.3713723711 1
87.9779182076 114.71630162 10.7344363625 0.501108534 1
89.7029742599 114.71630162 10.9030445683 0.2895455829 1
91.4280303121 114.71630162 10.9290104459 0.2883254335 1
93.1530863643 114.71630162 10.7629247963 0.3406629911 1
94.8781424165 114.71630162 10.6833710506 0.2753082208 1
96.6031984687 114.71630162 10.799093317 0.3864131125 1
98.3282545209 114.71630162 10.7319905798 0.2543422142 1
100.0533105731 114.71630162 10.7309047838 0.1533261764 1
101.7783666253 114.71630162 10.7358100589 0.0820310604 1
103.5034226775 114.71630162 10.6679615224 0.1780307758 1
105.2284787297 114.71630162 10.6129725389 0.0834212082 1
106.9535347819 114.71630162 10.5200766643 0.3667741898 1
108.6785908341 114.71630162 10.6986023547 0.2539638308 1
110.4036468863 114.71630162 10.7092656385 0.3283710134 1
112.1287029386 114.71630162 10.6986517091 0.2903640427 1
113.8537589908 114.71630162 10.5574104963 0.1280910175 1
115.578815043 114.71630162 10.6363802154 0.1729733248 1
117.3038710952 114.71630162 10.5948348113 0.2076571018 1
119.0289271474 114.71630162 10.6818438073 0.3067880772 1
120.7539831996 114.71630162 10.6352752261 0.1645049391 1
122.4790392518 114.71630162 10.5018895824 0.1601740939 1
124.204095304 114.71630162 10.6704374662 -0.0164240345 1
125.9291513562 114.71630162 10.5272412724 0.0770366733 1
127.6542074084 114.71630162 10.4908698504 -0.0411053277 1
129.3792634606 114.71630162 10.5743253325 0.1399429189 1
131.1043195128 114.71630162 10.5162242823 0.1408710551 1
132.8293755651 114.71630162 10.5889287395 0.127415137 1
134.5544316173 114.71630162 0 -0 0
-37.9511736035 112.9912455678 0 -0 0
-36.2261175513 112.9912455678 9.4523745854 0.4820604927 1
-34.5010614991 112.9912455678 9.2349329816 0.3596164366 1
-32.7760054469 112.9912455678 9.3603259607 0.1540390727 1
-31.0509493947 112.9912455678 9.522235683 0.6946763368 1
-29.3258933425 112.9912455678 9.3972868931 0.5056765543 1
-27.6008372903 112.9912455678 9.2408143762 0.3839577331 1
-25.8757812381 112.9912455678 0 -0 0
-24.1507251859 112.9912455678 0 -0 0
-22.4256691337 112.9912455678 0 -0 0
-20.7006130815 112.9912455678 0 -0 0
-18.9755570292 112.9912455678 0 -0 0
-17.250500977 112.9912455678 0 -0 0
-15.5254449248 112.9912455678 0 -0 0
-13.8003888726 112.9912455678 0 -0 0
-12.0753328204 112.9912455678 0 -0 0
-10.3502767682 112.9912455678 0 -0 0
-8.625220716 112.9912455678 0 -0 0
-6.9001646638 112.9912455678 0 -0 0
-5.1751086116 112.9912455678 0 -0 0
-3.4500525594 112.9912455678 0 -0 0
-1.7249965072 112.9912455678 9.8414788815 0.8088178926 1
0.000059545 112.9912455678 9.5734051874 0.7695688373 1
1.7251155972 112.9912455678 9.5558542284 0.7561828379 1
3.4501716495 112.9912455678 9.8611657876 0.7722984076 1
5.1752277017 112.9912455678 9.894512884 0.9398592042 1
6.9002837539 112.9912455678 9.8580071086 0.8446834324 1
8.6253398061 112.9912455678 9.7574229214 0.7668584603 1
10.3503958583 112.9912455678 9.5558158417 0.7509293404 1
12.0754519105 112.9912455678 9.6451911051 0.9094473213 1
13.8005079627 112.9912455678 9.7632138331 0.8977969502 1
15.5255640149 112.9912455678 10.0180687842 0.868569572 1
17.2506200671 112.9912455678 9.8877239175 0.8215293824 1
18.9756761193 112.9912455678 9.9033994109 0.9511215951 1
20.7007321715 112.9912455678 10.0081348482 0.9452114104 1
22.4257882237 112.9912455678 9.6568359923 0.9059952579 1
24.150844276 112.9912455678 9.7964896398 0.9738986326 1
25.8759003282 112.9912455678 10.1931122503 0.9921378108 1
27.6009563804 112.9912455678 10.2229661547 0.8718105084 1
29.3260124326 112.9912455678 10.1124507734 0.8554550216 1
31.0510684848 112.9912455678 10.1150391354 0.8901936368 1
32.776124537 112.9912455678 10.3099148287 0.8539826165 1
34.5011805892 112.9912455678 10.1007236289 0.8697225447 1
36.2262366414 112.9912455678 10.2400619569 1.0665655577 1
37.9512926936 112.9912455678 9.901921522 0.9440378734 1
39.6763487458 112.9912455678 10.0934822474 0.9131365597 1
41.401404798 112.9912455678 10.33860068 1.0988967768 1
43.1264608502 112.9912455678 10.363979789 0.8181952212 1
44.8515169024 112.9912455678 10.455326485 0.890879114 1
46.5765729547 112.9912455678 10.2594966073 0.9604070697 1
48.3016290069 112.9912455678 10.2970086634 1.1171537774 1
50.0266850591 112.9912455678 10.4404351776 0.9404391179 1
51.7517411113 112.9912455678 10.3133970531 0.8392229207 1
53.4767971635 112.9912455678 10.5991039635 0.7921621668 1
55.2018532157 112.9912455678 10.3939022411 0.9528956102 1
56.9269092679 112.9912455678 10.4775085282 0.8483850094 1
58.6519653201 112.9912455678 10.4311291387 0.8266951388 1
60.3770213723 112.9912455678 10.2932495063 0.7570876678 1
62.1020774245 112.9912455678 10.357264854 0.6969233311 1
63.8271334767 112.9912455678 10.5702124691 0.837048587 1
65.5521895289 112.9912455678 10.7212450387 0.7517930417 1
67.2772455812 112.9912455678 10.6524807046 0.6796904335 1
69.0023016334 112.9912455678 10.6735001785 0.7026580337 1
70.7273576856 112.9912455678 10.7819371928 0.838823973 1
72.4524137378 112.9912455678 10.538091006 0.6633938978 1
74.17746979 112.9912455678 0 -0 0
75.9025258422 112.9912455678 0 -0 0
77.6275818944 112.9912455678 0 -0 0
79.3526379466 112.9912455678 0 -0 0
81.0776939988 112.9912455678 0 -0 0
82.802750051 112.9912455678 10.7460181858 0.5228409042 1
84.5278061032 112.9912455678 10.8541563321 0.3021021549 1
86.2528621554 112.9912455678 10.9369181112 0.2476300211 1
87.9779182076 112.9912455678 10.8120954491 0.2365828701 1
89.7029742599 112.9912455678 10.8412529087 0.3739621041 1
91.4280303121 112.9912455678 10.7843966851 0.3524340061 1
93.1530863643 112.9912455678 10.8201265004 0.146443985 1
94.8781424165 112.9912455678 10.6946019096 0.2100836912 1
96.6031984687 112.9912455678 10.7830175049 0.2182559508 1
98.3282545209 112.9912455678 10.7486476765 0.1537456884 1
100.0533105731 112.9912455678 10.7476304283 -0.061267955 1
101.7783666253 112.9912455678 10.7896529245 -0.1327454079 1
103.5034226775 112.9912455678 10.7162465387 0.1264924846 1
105.2284787297 112.9912455678 10.667130724 0.1709127802 1
106.9535347819 112.9912455678 10.6490039641 0.1845866801 1
108.6785908341 112.9912455678 10.495158196 -0.0896549382 1
110.4036468863 112.9912455678 10.7108641715 0.2183368371 1
112.1287029386 112.9912455678 10.6339974965 0.2113202921 1
113.8537589908 112.9912455678 10.5733958254 0.153727866 1
115.578815043 112.9912455678 10.6714108439 0.0360423929 1
117.3038710952 112.9912455678 10.5803959189 0.081649935 1
119.0289271474 112.9912455678 10.6045000403 0.287557699 1
120.7539831996 112.9912455678 10.5656800937 -0.0151929174 1
122.4790392518 112.9912455678 10.6604651434 -0.0105316722 1
124.204095304 112.9912455678 10.677278529 0.1275618291 1
125.9291513562 112.9912455678 10.5142583336 0.1047011634 1
127.6542074084 112.9912455678 10.6373508512 0.0089824937 1
129.3792634606 112.9912455678 10.5901296956 0.0514121634 1
131.1043195128 112.9912455678 10.5712626202 0.0911862943 1
132.8293755651 112.9912455678 10.5355218373 0.1380400341 1
134.5544316173 112.9912455678 0 -0 0
-37.9511736035 111.2661895156 0 -0 0
-36.2261175513 111.2661895156 9.5904132485 0.1955447191 1
-34.5010614991 111.2661895156 9.3308367302 0.4569034782 1
-32.7760054469 111.2661895156 9.2580746929 0.1150011443 1
-31.0509493947 111.2661895156 9.4865716736 0.581375176 1
-29.3258933425 111.2661895156 9.3760535503 0.5912021776 1
-27.6008372903 111.2661895156 9.3053972991 0.6123121344 1
-25.8757812381 111.2661895156 0 -0 0
-24.1507251859 111.2661895156 0 -0 0
-22.4256691337 111.2661895156 0 -0 0
-20.7006130815 111.2661895156 0 -0 0
-18.9755570292 111.2661895156 0 -0 0
-17.250500977 111.2661895156 0 -0 0
-15.5254449248 111.2661895156 0 -0 0
-13.8003888726 111.2661895156 0 -0 0
-12.0753328204 111.2661895156 0 -0 0
-10.3502767682 111.2661895156 0 -0 0
-8.625220716 111.2661895156 0 -0 0
-6.9001646638 111.2661895156 0 -0 0
-5.1751086116 111.2661895156 0 -0 0
-3.4500525594 111.2661895156 0 -0 0
-1.7249965072 111.2661895156 9.8491013884 0.8087863607 1
0.000059545 111.2661895156 9.6807097934 0.8077979025 1
1.7251155972 111.2661895156 9.6874795665 0.782461293 1
3.4501716495 111.2661895156 9.7524271633 0.7862382726 1
5.1752277017 111.2661895156 9.9376047248 0.7983821872 1
6.9002837539 111.2661895156 9.9456083569 0.7455003607 1
8.6253398061 111.2661895156 9.8478126912 0.8044980151 1
10.3503958583 111.2661895156 9.6425314534 0.7913258846 1
12.0754519105 111.2661895156 9.7059490651 0.8504236187 1
13.8005079627 111.2661895156 9.7208568239 0.8464670441 1
15.5255640149 111.2661895156 10.0517750707 0.8284389929 1
17.2506200671 111.2661895156 9.977491274 0.8738971011 1
18.9756761193 111.2661895156 9.7054116509 0.6951726223 1
20.7007321715 111.2661895156 9.7445112723 0.8862548846 1
22.4257882237 111.2661895156 9.8520571662 0.934626271 1
24.150844276 111.2661895156 9.7700823149 0.9222849389 1
25.8759003282 111.2661895156 10.0282878788 0.9291122921 1
27.6009563804 111.2661895156 10.287957622 0.9266267517 1
29.3260124326 111.2661895156 10.1841078213 0.7822337146 1
31.0510684848 111.2661895156 10.2259109649 0.980630019 1
32.776124537 111.2661895156 10.3510242693 0.8984618632 1
34.5011805892 111.2661895156 10.1967452796 0.8348948175 1
36.2262366414 111.2661895156 10.4535634375 1.0276249671 1
37.9512926936 111.2661895156 10.1676426582 0.9074717759 1
39.6763487458 111.2661895156 10.0349205565 0.8191096478 1
41.401404798 111.2661895156 10.2577335599 1.0330402372 1
43.1264608502 111.2661895156 10.3156838051 0.9292905162 1
44.8515169024 111.2661895156 10.5121717409 0.7816675104 1
46.5765729547 111.2661895156 10.3404322751 0.8590181323 1
48.3016290069 111.2661895156 10.194716267 0.9914166887 1
50.0266850591 111.2661895156 10.4107786906 0.9407859694 1
51.7517411113 111.2661895156 10.2543527862 0.946397286 1
53.4767971635 111.2661895156 10.5034469867 0.7981929955 1
55.2018532157 111.2661895156 10.4552908402 0.8468056699 1
56.9269092679 111.2661895156 10.5217574545 0.700811358 1
58.6519653201 111.2661895156 10.3833733109 0.8518727176 1
60.3770213723 111.2661895156 10.3241535618 0.7611909345 1
62.1020774245 111.2661895156 10.7012181358 0.6715113192 1
63.8271334767 111.2661895156 10.3957557716 0.7422470857 1
65.5521895289 111.2661895156 10.5742129142 0.7704901187 1
67.2772455812 111.2661895156 10.3479533313 0.6874459229 1
69.0023016334 111.2661895156 10.8405125933 0.7281317386 1
70.7273576856 111.2661895156 10.5890384158 0.9665489457 1
72.4524137378 111.2661895156 10.7253798373 0.5386205901 1
74.17746979 111.2661895156 0 -0 0
75.9025258422 111.2661895156 0 -0 0
77.6275818944 111.2661895156 0 -0 0
79.3526379466 111.2661895156 0 -0 0
81.0776939988 111.2661895156 0 -0 0
82.802750051 111.2661895156 10.7532239225 0.506980332 1
84.5278061032 111.2661895156 10.9198195671 0.2866898848 1
86.2528621554 111.2661895156 10.9470960772 0.1661610521 1
87.9779182076 111.2661895156 10.9284839994 0.2742964564 1
89.7029742599 111.2661895156 10.8075877508 0.2961453577 1
91.4280303121 111.2661895156 10.8030910202 0.4459714873 1
93.1530863643 111.2661895156 10.8035269837 0.2279952113 1
94.8781424165 111.2661895156 10.7486833213 0.106007683 1
96.6031984687 111.2661895156 10.7124572205 0.258684027 1
98.3282545209 111.2661895156 10.8033926302 0.1457379434 1
100.0533105731 111.2661895156 10.9600872417 0.0535056108 1
101.7783666253 111.2661895156 10.8000310498 -0.2366473049 1
103.5034226775 111.2661895156 10.7467393079 0.2312430024 1
105.2284787297 111.2661895156 10.6778378784 0.1159512158 1
106.9535347819 111.2661895156 10.7771388522 0.1800776108 1
108.6785908341 111.2661895156 10.5705826268 -0.068072002 1
110.4036468863 111.2661895156 10.7190295762 0.1575651676 1
112.1287029386 111.2661895156 10.7323031574 0.1172906383 1
113.8537589908 111.2661895156 10.6742624292 0.1066246125 1
115.578815043 111.2661895156 10.5829184751 -0.0138946235 1
117.3038710952 111.2661895156 10.6026437679 -0.0317197734 1
119.0289271474 111.2661895156 10.5547508447 -0.0400250156 1
120.7539831996 111.2661895156 10.5400459871 -0.0616559351 1