TITLE = "B00029"
VARIABLES = "x", "y", "Vx", "Vy", "isValid"
ZONE T="Frame 0", I=101, J=78, F=POINT
-37.9511736035 119.8914697766 0 -0 0
-36.2261175513 119.8914697766 0 -0 0
-34.5010614991 119.8914697766 0 -0 0
-32.7760054469 119.8914697766 0 -0 0
-31.0509493947 119.8914697766 0 -0 0
-29.3258933425 119.8914697766 0 -0 0
-27.6008372903 119.8914697766 0 -0 0
-25.8757812381 119.8914697766 0 -0 0
-24.1507251859 119.8914697766 0 -0 0
-22.4256691337 119.8914697766 0 -0 0
-20.7006130815 119.8914697766 0 -0 0
-18.9755570292 119.8914697766 0 -0 0
-17.250500977 119.8914697766 0 -0 0
-15.5254449248 119.8914697766 0 -0 0
-13.8003888726 119.8914697766 0 -0 0
-12.0753328204 119.8914697766 0 -0 0
-10.3502767682 119.8914697766 0 -0 0
-8.625220716 119.8914697766 0 -0 0
-6.9001646638 119.8914697766 0 -0 0
-5.1751086116 119.8914697766 0 -0 0
-3.4500525594 119.8914697766 0 -0 0
-1.7249965072 119.8914697766 0 -0 0
0.000059545 119.8914697766 0 -0 0
1.7251155972 119.8914697766 0 -0 0
3.4501716495 119.8914697766 0 -0 0
5.1752277017 119.8914697766 0 -0 0
6.9002837539 119.8914697766 0 -0 0
8.6253398061 119.8914697766 0 -0 0
10.3503958583 119.8914697766 0 -0 0
12.0754519105 119.8914697766 0 -0 0
13.8005079627 119.8914697766 0 -0 0
15.5255640149 119.8914697766 0 -0 0
17.2506200671 119.8914697766 0 -0 0
18.9756761193 119.8914697766 0 -0 0
20.7007321715 119.8914697766 0 -0 0
22.4257882237 119.8914697766 0 -0 0
24.150844276 119.8914697766 0 -0 0
25.8759003282 119.8914697766 0 -0 0
27.6009563804 119.8914697766 0 -0 0
29.3260124326 119.8914697766 0 -0 0
31.0510684848 119.8914697766 0 -0 0
32.776124537 119.8914697766 0 -0 0
34.5011805892 119.8914697766 0 -0 0
36.2262366414 119.8914697766 0 -0 0
37.9512926936 119.8914697766 0 -0 0
39.6763487458 119.8914697766 0 -0 0
41.401404798 119.8914697766 0 -0 0
43.1264608502 119.8914697766 0 -0 0
44.8515169024 119.8914697766 0 -0 0
46.5765729547 119.8914697766 0 -0 0
48.3016290069 119.8914697766 0 -0 0
50.0266850591 119.8914697766 0 -0 0
51.7517411113 119.8914697766 0 -0 0
53.4767971635 119.8914697766 0 -0 0
55.2018532157 119.8914697766 0 -0 0
56.9269092679 119.8914697766 0 -0 0
58.6519653201 119.8914697766 0 -0 0
60.3770213723 119.8914697766 0 -0 0
62.1020774245 119.8914697766 0 -0 0
63.8271334767 119.8914697766 0 -0 0
65.5521895289 119.8914697766 0 -0 0
67.2772455812 119.8914697766 0 -0 0
69.0023016334 119.8914697766 0 -0 0
70.7273576856 119.8914697766 0 -0 0
72.4524137378 119.8914697766 0 -0 0
74.17746979 119.8914697766 0 -0 0
75.9025258422 119.8914697766 0 -0 0
77.6275818944 119.8914697766 0 -0 0
79.3526379466 119.8914697766 0 -0 0
81.0776939988 119.8914697766 0 -0 0
82.802750051 119.8914697766 0 -0 0
84.5278061032 119.8914697766 0 -0 0
86.2528621554 119.8914697766 0 -0 0
87.9779182076 119.8914697766 0 -0 0
89.7029742599 119.8914697766 0 -0 0
91.4280303121 119.8914697766 0 -0 0
93.1530863643 119.8914697766 0 -0 0
94.8781424165 119.8914697766 0 -0 0
96.6031984687 119.8914697766 0 -0 0
98.3282545209 119.8914697766 0 -0 0
100.0533105731 119.8914697766 0 -0 0
101.7783666253 119.8914697766 0 -0 0
103.5034226775 119.8914697766 0 -0 0
105.2284787297 119.8914697766 0 -0 0
106.9535347819 119.8914697766 0 -0 0
108.6785908341 119.8914697766 0 -0 0
110.4036468863 119.8914697766 0 -0 0
112.1287029386 119.8914697766 0 -0 0
113.8537589908 119.8914697766 0 -0 0
115.578815043 119.8914697766 0 -0 0
117.3038710952 119.8914697766 0 -0 0
119.0289271474 119.8914697766 0 -0 0
120.7539831996 119.8914697766 0 -0 0
122.4790392518 119.8914697766 0 -0 0
124.204095304 119.8914697766 0 -0 0
125.9291513562 119.8914697766 0 -0 0
127.6542074084 119.8914697766 0 -0 0
129.3792634606 119.8914697766 0 -0 0
131.1043195128 119.8914697766 0 -0 0
132.8293755651 119.8914697766 0 -0 0
134.5544316173 119.8914697766 0 -0 0
-37.9511736035 118.1664137244 0 -0 0
-36.2261175513 118.1664137244 9.2521384601 0.3320163813 1
-34.5010614991 118.1664137244 9.8085704906 0.422258088 1
-32.7760054469 118.1664137244 9.5463288368 0.4485845266 1
-31.0509493947 118.1664137244 9.4773862786 0.6099897376 1
-29.3258933425 118.1664137244 9.4758645192 0.5755828934 1
-27.6008372903 118.1664137244 9.3741259884 0.5763972403 1
-25.8757812381 118.1664137244 0 -0 0
-24.1507251859 118.1664137244 0 -0 0
-22.4256691337 118.1664137244 0 -0 0
-20.7006130815 118.1664137244 0 -0 0
-18.9755570292 118.1664137244 0 -0 0
-17.250500977 118.1664137244 0 -0 0
-15.5254449248 118.1664137244 0 -0 0
-13.8003888726 118.1664137244 0 -0 0
-12.0753328204 118.1664137244 0 -0 0
-10.3502767682 118.1664137244 0 -0 0
-8.625220716 118.1664137244 0 -0 0
-6.9001646638 118.1664137244 0 -0 0
-5.1751086116 118.1664137244 0 -0 0
-3.4500525594 118.1664137244 0 -0 0
-1.7249965072 118.1664137244 9.6338258926 0.8500219291 1
0.000059545 118.1664137244 9.666811057 0.8190561806 1
1.7251155972 118.1664137244 9.6101577347 0.7113581107 1
3.4501716495 118.1664137244 9.5828538056 0.7213715621 1
5.1752277017 118.1664137244 9.9413474305 0.7707560838 1
6.9002837539 118.1664137244 9.7705374718 0.728570444 1
8.6253398061 118.1664137244 10.0752951655 0.8003070073 1
10.3503958583 118.1664137244 9.8310157571 0.9732145263 1
12.0754519105 118.1664137244 10.1128291568 0.7366001243 1
13.8005079627 118.1664137244 9.8568692164 0.7473826812 1
15.5255640149 118.1664137244 9.9554764872 0.5713713213 1
17.2506200671 118.1664137244 10.0513857196 0.8512352238 1
18.9756761193 118.1664137244 10.1819910676 0.8451618955 1
20.7007321715 118.1664137244 10.01717218 0.7066379145 1
22.4257882237 118.1664137244 10.0023028079 0.8848853011 1
24.150844276 118.1664137244 10.1991581594 0.7620107653 1
25.8759003282 118.1664137244 10.1476925288 0.9369897965 1
27.6009563804 118.1664137244 9.9782343313 0.8968825236 1
29.3260124326 118.1664137244 10.1626030296 0.6732510604 1
31.0510684848 118.1664137244 10.3070988883 0.6892336475 1
32.776124537 118.1664137244 10.3763320887 0.9139742129 1
34.5011805892 118.1664137244 10.499523315 0.7637998609 1
36.2262366414 118.1664137244 9.9963281883 0.6912462087 1
37.9512926936 118.1664137244 10.1436756323 0.6916780594 1
39.6763487458 118.1664137244 10.2122836775 0.8115803659 1
41.401404798 118.1664137244 10.5496728293 0.8219132497 1
43.1264608502 118.1664137244 10.4779691689 0.7601915087 1
44.8515169024 118.1664137244 10.3793591562 0.8275465016 1
46.5765729547 118.1664137244 10.0403714714 0.8077869349 1
48.3016290069 118.1664137244 10.3582821022 0.7146579981 1
50.0266850591 118.1664137244 10.1498421854 0.7493294365 1
51.7517411113 118.1664137244 10.4369885981 0.8220297808 1
53.4767971635 118.1664137244 10.5947607798 0.6992100832 1
55.2018532157 118.1664137244 10.3602645024 0.8133118814 1
56.9269092679 118.1664137244 10.4122977082 0.8825217756 1
58.6519653201 118.1664137244 10.6983089705 0.8413465292 1
60.3770213723 118.1664137244 10.5163257329 0.6192121483 1
62.1020774245 118.1664137244 10.6903821118 0.5775241649 1
63.8271334767 118.1664137244 10.3515808768 0.5761024851 1
65.5521895289 118.1664137244 10.5888053536 0.6101240911 1
67.2772455812 118.1664137244 11.0070259806 0.1135081749 1
69.0023016334 118.1664137244 10.7545619741 0.3506421686 1
70.7273576856 118.1664137244 10.7593411213 0.4009507137 1
72.4524137378 118.1664137244 0 -0 0
74.17746979 118.1664137244 0 -0 0
75.9025258422 118.1664137244 0 -0 0
77.6275818944 118.1664137244 0 -0 0
79.3526379466 118.1664137244 0 -0 0
81.0776939988 118.1664137244 0 -0 0
82.802750051 118.1664137244 10.7437341757 0.4510933732 1
84.5278061032 118.1664137244 10.8450230335 0.2991052484 1
86.2528621554 118.1664137244 10.840158887 0.4440795702 1
87.9779182076 118.1664137244 10.7877884265 0.3470365584 1
89.7029742599 118.1664137244 10.829802697 0.1897400979 1
91.4280303121 118.1664137244 10.6672760452 0.2725717957 1
93.1530863643 118.1664137244 10.7047908432 -0.0535056108 1
94.8781424165 118.1664137244 10.8411377485 0.1810880043 1
96.6031984687 118.1664137244 10.7916133894 0.2568496899 1
98.3282545209 118.1664137244 10.8020710301 0.2001730614 1
100.0533105731 118.1664137244 10.6998526652 0.2079751632 1
101.7783666253 118.1664137244 10.6727598631 0.248055017 1
103.5034226775 118.1664137244 10.7217221308 -0.0666174193 1
105.2284787297 118.1664137244 10.6157363831 0.1655523483 1
106.9535347819 118.1664137244 10.6156541258 0.229176974 1
108.6785908341 118.1664137244 10.6373453673 0.1309096999 1
110.4036468863 118.1664137244 10.62534129 -0.0118066598 1
112.1287029386 118.1664137244 10.6250808087 0.0604275599 1
113.8537589908 118.1664137244 10.610077083 0.135634009 1
115.578815043 118.1664137244 10.5449457783 0.0748143561 1
117.3038710952 118.1664137244 10.5508518502 0.0594486984 1
119.0289271474 118.1664137244 10.5800285031 -0.015386222 1
120.7539831996 118.1664137244 10.5305480145 -0.1109705382 1
122.4790392518 118.1664137244 10.5946867482 0.0064448569 1
124.204095304 118.1664137244 10.4981221995 -0.0409216198 1
125.9291513562 118.1664137244 10.402306192 -0.0256121713 1
127.6542074084 118.1664137244 10.319330544 -0.0162951648 1
129.3792634606 118.1664137244 10.4591706413 -0.0194031185 1
131.1043195128 118.1664137244 10.4970830161 -0.0899414677 1
132.8293755651 118.1664137244 10.423651953 0.102906584 1
134.5544316173 118.1664137244 0 -0 0
-37.9511736035 116.4413576722 0 -0 0
-36.2261175513 116.4413576722 9.1353139464 0.4167866087 1
-34.5010614991 116.4413576722 9.4410011471 0.5833041089 1
-32.7760054469 116.4413576722 9.4044323078 -0.0287434313 1
-31.0509493947 116.4413576722 9.5183860429 0.5878652744 1
-29.3258933425 116.4413576722 9.5618672347 0.6098046587 1
-27.6008372903 116.4413576722 9.5719327823 0.4681124019 1
-25.8757812381 116.4413576722 0 -0 0
-24.1507251859 116.4413576722 0 -0 0
-22.4256691337 116.4413576722 0 -0 0
-20.7006130815 116.4413576722 0 -0 0
-18.9755570292 116.4413576722 0 -0 0
-17.250500977 116.4413576722 0 -0 0
-15.5254449248 116.4413576722 0 -0 0
-13.8003888726 116.4413576722 0 -0 0
-12.0753328204 116.4413576722 0 -0 0
-10.3502767682 116.4413576722 0 -0 0
-8.625220716 116.4413576722 0 -0 0
-6.9001646638 116.4413576722 0 -0 0
-5.1751086116 116.4413576722 0 -0 0
-3.4500525594 116.4413576722 0 -0 0
-1.7249965072 116.4413576722 9.6234477673 0.8400263001 1
0.000059545 116.4413576722 9.8729121255 0.8150529935 1
1.7251155972 116.4413576722 9.8488984871 0.7293779362 1
3.4501716495 116.4413576722 9.9073121149 0.7119764112 1
5.1752277017 116.4413576722 9.6947319156 0.6561689678 1
6.9002837539 116.4413576722 9.7942961127 0.6795601928 1
8.6253398061 116.4413576722 9.7513852379 0.9381509949 1
10.3503958583 116.4413576722 9.6572088919 0.8758822431 1
12.0754519105 116.4413576722 9.861184981 0.7047103525 1
13.8005079627 116.4413576722 10.0969288269 0.7830412068 1
15.5255640149 116.4413576722 9.9821991316 0.7384358323 1
17.2506200671 116.4413576722 9.9028099005 0.8909339522 1
18.9756761193 116.4413576722 10.1076085622 0.8702764103 1
20.7007321715 116.4413576722 9.7828596105 0.676423449 1
22.4257882237 116.4413576722 10.1850537799 0.7801855086 1
24.150844276 116.4413576722 10.2085135527 0.731670172 1
25.8759003282 116.4413576722 10.1879684291 0.8474925181 1
27.6009563804 116.4413576722 10.2760769306 0.8432123982 1
29.3260124326 116.4413576722 10.1067969572 0.811877863 1
31.0510684848 116.4413576722 10.2640591438 0.8742357268 1
32.776124537 116.4413576722 10.3823834817 0.9884019599 1
34.5011805892 116.4413576722 10.4190729651 0.803268269 1
36.2262366414 116.4413576722 10.3140825303 0.737692775 1
37.9512926936 116.4413576722 10.1632089915 0.6762657893 1
39.6763487458 116.4413576722 10.3247896847 0.7753186203 1
41.401404798 116.4413576722 10.6796831831 0.7712605951 1
43.1264608502 116.4413576722 10.4683560362 0.6572821828 1
44.8515169024 116.4413576722 10.1382356849 0.746845267 1
46.5765729547 116.4413576722 10.3058266425 0.8064639638 1
48.3016290069 116.4413576722 10.4733709876 0.8437717477 1
50.0266850591 116.4413576722 10.3805491447 0.7802801045 1
51.7517411113 116.4413576722 10.4409972689 0.8717995407 1
53.4767971635 116.4413576722 10.5919859679 0.7916782199 1
55.2018532157 116.4413576722 10.3784104557 0.7394023552 1
56.9269092679 116.4413576722 10.3175428194 0.8900126708 1
58.6519653201 116.4413576722 10.5053855163 0.6323390373 1
60.3770213723 116.4413576722 10.6326183163 0.663175916 1
62.1020774245 116.4413576722 10.6529797321 0.6272514252 1
63.8271334767 116.4413576722 10.2779167515 0.5403178317 1
65.5521895289 116.4413576722 10.3553893883 0.4487462992 1
67.2772455812 116.4413576722 10.5048563279 0.5915174971 1
69.0023016334 116.4413576722 10.7365256971 0.7135996212 1
70.7273576856 116.4413576722 10.6921479011 0.683560638 1
72.4524137378 116.4413576722 0 -0 0
74.17746979 116.4413576722 0 -0 0
75.9025258422 116.4413576722 0 -0 0
77.6275818944 116.4413576722 0 -0 0
79.3526379466 116.4413576722 0 -0 0
81.0776939988 116.4413576722 0 -0 0
82.802750051 116.4413576722 10.779943825 0.3793910838 1
84.5278061032 116.4413576722 10.8448365836 0.2104716713 1
86.2528621554 116.4413576722 10.8502024994 0.4014401444 1
87.9779182076 116.4413576722 10.8233729205 0.2489324279 1
89.7029742599 116.4413576722 10.8229534085 0.115763395 1
91.4280303121 116.4413576722 10.7866916629 0.0881112434 1
93.1530863643 116.4413576722 10.8073848496 0.23938373 1
94.8781424165 116.4413576722 10.8812080056 0.2341439421 1
96.6031984687 116.4413576722 10.8970644649 0.2747022589 1
98.3282545209 116.4413576722 10.731261232 0.3209993912 1
100.0533105731 116.4413576722 10.7054653528 0.2337861229 1
101.7783666253 116.4413576722 10.7518968386 0.138854381 1
103.5034226775 116.4413576722 10.661923839 -0.0998041141 1
105.2284787297 116.4413576722 10.6405150141 -0.0936457866 1
106.9535347819 116.4413576722 10.6482142943 -0.0440652184 1
108.6785908341 116.4413576722 10.6661847655 -0.1242646836 1
110.4036468863 116.4413576722 10.6117002931 0.1361371493 1
112.1287029386 116.4413576722 10.6478551043 -0.0538442366 1
113.8537589908 116.4413576722 10.6531168275 -0.050009677 1
115.578815043 116.4413576722 10.560070148 -0.0378356013 1
117.3038710952 116.4413576722 10.5181216833 -0.0931357916 1
119.0289271474 116.4413576722 10.546190605 -0.2354669131 1
120.7539831996 116.4413576722 10.5217574545 -0.0815896131 1
122.4790392518 116.4413576722 10.5735109856 0.0002070141 1
124.204095304 116.4413576722 10.4444740094 0.0404088828 1
125.9291513562 116.4413576722 10.4719287435 -0.1547039856 1
127.6542074084 116.4413576722 10.3493846078 -0.0761345852 1
129.3792634606 116.4413576722 10.4809304306 -0.2500977392 1
131.1043195128 116.4413576722 10.4468567283 -0.1145953418 1
132.8293755651 116.4413576722 10.3795620574 0.0124153636 1
134.5544316173 116.4413576722 0 -0 0
-37.9511736035 114.71630162 0 -0 0
-36.2261175513 114.71630162 9.383319609 -0.0285939973 1
-34.5010614991 114.71630162 9.232662681 -0.0837447535 1
-32.7760054469 114.71630162 9.5462794824 0.504328906 1
-31.0509493947 114.71630162 9.6153344588 0.6317111401 1
-29.3258933425 114.71630162 9.5503073466 0.6606094893 1
-27.6008372903 114.71630162 9.5249967853 0.5330723373 1
-25.8757812381 114.71630162 0 -0 0
-24.1507251859 114.71630162 0 -0 0
-22.4256691337 114.71630162 0 -0 0
-20.7006130815 114.71630162 0 -0 0
-18.9755570292 114.71630162 0 -0 0
-17.250500977 114.71630162 0 -0 0
-15.5254449248 114.71630162 0 -0 0
-13.8003888726 114.71630162 0 -0 0
-12.0753328204 114.71630162 0 -0 0
-10.3502767682 114.71630162 0 -0 0
-8.625220716 114.71630162 0 -0 0
-6.9001646638 114.71630162 0 -0 0
-5.1751086116 114.71630162 0 -0 0
-3.4500525594 114.71630162 0 -0 0
-1.7249965072 114.71630162 9.344118537 0.8589386169 1
0.000059545 114.71630162 9.9330613817 0.7856309398 1
1.7251155972 114.71630162 9.868201526 0.7231853349 1
3.4501716495 114.71630162 10.038970356 0.7279260954 1
5.1752277017 114.71630162 9.5897908352 0.6968849444 1
6.9002837539 114.71630162 9.739822608 0.7305336508 1
8.6253398061 114.71630162 9.8109532094 0.8698829464 1
10.3503958583 114.71630162 9.7726789027 0.8308738081 1
12.0754519105 114.71630162 9.9826542885 0.9670863598 1
13.8005079627 114.71630162 10.1331083152 0.9969978444 1
15.5255640149 114.71630162 10.0281946539 0.803689152 1
17.2506200671 114.71630162 9.8981376876 0.5915586258 1
18.9756761193 114.71630162 9.714651884 1.0050590566 1
20.7007321715 114.71630162 10.0017791033 0.879319226 1
22.4257882237 114.71630162 10.0795944787 0.6382656734 1
24.150844276 114.71630162 10.1985330042 0.7211590642 1
25.8759003282 114.71630162 10.2027500601 0.8732143657 1
27.6009563804 114.71630162 10.0293928681 0.7830494325 1
29.3260124326 114.71630162 9.8213806891 0.8336253137 1
31.0510684848 114.71630162 10.1557893859 0.8760919992 1
32.776124537 114.71630162 10.273568084 0.8222176016 1
34.5011805892 114.71630162 10.3214966521 0.8575333886 1
36.2262366414 114.71630162 10.2825588033 0.8352375561 1
37.9512926936 114.71630162 10.3286612601 0.7906897617 1
39.6763487458 114.71630162 10.4432703114 0.7525484376 1
41.401404798 114.71630162 10.6577643631 0.7307118749 1
43.1264608502 114.71630162 10.4511231386 0.7065460605 1
44.8515169024 114.71630162 10.3383703596 0.7550518004 1
46.5765729547 114.71630162 10.4703685974 0.857671855 1
48.3016290069 114.71630162 10.5425849947 1.0257234532 1
50.0266850591 114.71630162 10.6860115089 0.7378202738 1
51.7517411113 114.71630162 10.3689069993 0.7577799998 1
53.4767971635 114.71630162 10.5599220849 0.8290943092 1
55.2018532157 114.71630162 10.4857232874 0.6833632205 1
56.9269092679 114.71630162 10.2797620562 0.706802429 1
58.6519653201 114.71630162 10.4111296549 0.7546405141 1
60.3770213723 114.71630162 10.5508189473 0.567464101 1
62.1020774245 114.71630162 10.654548104 0.7249648338 1
63.8271334767 114.71630162 10.5369531138 0.6730056595 1
65.5521895289 114.71630162 10.6720661601 0.7363547234 1
67.2772455812 114.71630162 10.4872148858 0.6062154999 1
69.0023016334 114.71630162 10.712865765 0.7274956157 1
70.7273576856 114.71630162 10.747427527 0.4664329827 1
72.4524137378 114.71630162 0 -0 0
74.17746979 114.71630162 0 -0 0
75.9025258422 114.71630162 0 -0 0
77.6275818944 114.71630162 0 -0 0
79.3526379466 114.71630162 0 -0 0
81.0776939988 114.71630162 0 -0 0
82.802750051 114.71630162 10.8310639751 0.444415454 1
84.5278061032 114.71630162 10.7615264227 0.5015266751 1
86.2528621554 114.71630162 10.7864311815 0.3696943228 1
87.9779182076 114.71630162 10.8866068243 0.3478426796 1
89.7029742599 114.71630162 10.7949996469 0.1495958093 1
91.4280303121 114.71630162 10.831247683 0.3546755167 1
93.1530863643 114.71630162 10.9078127479 0.2853751394 1
94.8781424165 114.71630162 10.8596264404 0.3630164036 1
96.6031984687 114.71630162 10.8147605846 0.091346696 1
98.3282545209 114.71630162 10.7557108339 -0.0696431158 1
100.0533105731 114.71630162 10.7311186527 -0.037363993 1
101.7783666253 114.71630162 10.7269674026 -0.0011036183 1
103.5034226775 114.71630162 10.7409374286 -0.1167312888 1
105.2284787297 114.71630162 10.6671828203 -0.179440117 1
106.9535347819 114.71630162 10.5848268437 -0.1356847343 1
108.6785908341 114.71630162 10.721716647 -0.0819666255 1
110.4036468863 114.71630162 10.6388068048 0.1431235332 1
112.1287029386 114.71630162 10.6094491859 0.0543048773 1
113.8537589908 114.71630162 10.7445402969 0.0344671662 1
115.578815043 114.71630162 10.6515265203 0.0571619464 1
117.3038710952 114.71630162 10.5360071552 -0.0268926428 1
119.0289271474 114.71630162 10.6137375315 -0.0769132874 1
120.7539831996 114.71630162 10.5688415146 -0.1395549388 1
122.4790392518 114.71630162 10.5234793733 -0.0035617397 1
124.204095304 114.71630162 10.3702669862 -0.0482205814 1
125.9291513562 114.71630162 10.4496452497 -0.0833458057 1
127.6542074084 114.71630162 10.4034056975 -0.1088716069 1
129.3792634606 114.71630162 10.4744321064 -0.2848281286 1
131.1043195128 114.71630162 10.4162597666 -0.1616231928 1
132.8293755651 114.71630162 10.3224289011 -0.0917031441 1
134.5544316173 114.71630162 0 -0 0
-37.9511736035 112.9912455678 0 -0 0
-36.2261175513 112.9912455678 9.3578664684 -0.2645105834 1
-34.5010614991 112.9912455678 9.429594806 0.2888436542 1
-32.7760054469 112.9912455678 9.5570579264 0.6360995654 1
-31.0509493947 112.9912455678 9.5711732736 0.7218829281 1
-29.3258933425 112.9912455678 9.5360603878 0.6517709458 1
-27.6008372903 112.9912455678 9.7260006451 0.8528296438 1
-25.8757812381 112.9912455678 0 -0 0
-24.1507251859 112.9912455678 0 -0 0
-22.4256691337 112.9912455678 0 -0 0
-20.7006130815 112.9912455678 0 -0 0
-18.9755570292 112.9912455678 0 -0 0
-17.250500977 112.9912455678 0 -0 0
-15.5254449248 112.9912455678 0 -0 0
-13.8003888726 112.9912455678 0 -0 0
-12.0753328204 112.9912455678 0 -0 0
-10.3502767682 112.9912455678 0 -0 0
-8.625220716 112.9912455678 0 -0 0
-6.9001646638 112.9912455678 0 -0 0
-5.1751086116 112.9912455678 0 -0 0
-3.4500525594 112.9912455678 0 -0 0
-1.7249965072 112.9912455678 9.2610167612 0.8201364927 1
0.000059545 112.9912455678 9.9303578595 0.6829711275 1
1.7251155972 112.9912455678 10.0590548389 0.7470152654 1
3.4501716495 112.9912455678 9.8430116086 0.882329842 1
5.1752277017 112.9912455678 9.8865832834 0.7578814504 1
6.9002837539 112.9912455678 10.0691779667 0.7773352943 1
8.6253398061 112.9912455678 10.0106711139 0.8319870231 1
10.3503958583 112.9912455678 9.7655307461 0.8496092718 1
12.0754519105 112.9912455678 9.9584596841 1.0382731704 1
13.8005079627 112.9912455678 9.9970191494 1.0165668484 1
15.5255640149 112.9912455678 9.8929088673 0.8257957927 1
17.2506200671 112.9912455678 9.7591530659 0.8160551612 1
18.9756761193 112.9912455678 9.8123598087 0.9433825571 1
20.7007321715 112.9912455678 9.9579633986 0.9186368291 1
22.4257882237 112.9912455678 10.0288746473 0.7773476329 1
24.150844276 112.9912455678 10.0538150509 0.7606932781 1
25.8759003282 112.9912455678 10.1010663675 0.9646529157 1
27.6009563804 112.9912455678 9.8686374895 0.8190781158 1
29.3260124326 112.9912455678 10.0542976269 0.8535836688 1
31.0510684848 112.9912455678 10.0826599329 0.8775740009 1
32.776124537 112.9912455678 10.1778919138 0.8711113216 1
34.5011805892 112.9912455678 10.3172192741 0.8074866958 1
36.2262366414 112.9912455678 10.4323602558 0.8785281852 1
37.9512926936 112.9912455678 10.3927095108 0.9566588802 1
39.6763487458 112.9912455678 10.4285791634 0.8730004968 1
41.401404798 112.9912455678 10.6109407843 0.7923431328 1
43.1264608502 112.9912455678 10.3616491664 0.8238366988 1
44.8515169024 112.9912455678 10.4071209841 0.8368635081 1
46.5765729547 112.9912455678 10.3480163952 0.947511872 1
48.3016290069 112.9912455678 10.6067593732 0.934262968 1
50.0266850591 112.9912455678 10.4396729269 0.7939265852 1
51.7517411113 112.9912455678 10.2723835793 0.7464805931 1
53.4767971635 112.9912455678 10.5089664494 0.8268048152 1
55.2018532157 112.9912455678 10.6518418398 0.7283949618 1
56.9269092679 112.9912455678 10.5880485867 0.3183685296 1
58.6519653201 112.9912455678 10.4816789717 0.5968409133 1
60.3770213723 112.9912455678 10.32451001 0.7738407314 1
62.1020774245 112.9912455678 10.8344008783 0.754944866 1
63.8271334767 112.9912455678 10.6820686439 0.7370141525 1
65.5521895289 112.9912455678 10.6598399882 0.6721049425 1
67.2772455812 112.9912455678 10.6281517467 0.6198962545 1
69.0023016334 112.9912455678 10.7571722714 0.6530514173 1
70.7273576856 112.9912455678 10.7060247022 0.5255800712 1
72.4524137378 112.9912455678 10.6904588852 0.2332774988 1
74.17746979 112.9912455678 0 -0 0
75.9025258422 112.9912455678 0 -0 0
77.6275818944 112.9912455678 0 -0 0
79.3526379466 112.9912455678 0 -0 0
81.0776939988 112.9912455678 0 -0 0
82.802750051 112.9912455678 10.9166773395 0.4898242078 1
84.5278061032 112.9912455678 10.8123586724 0.4773252159 1
86.2528621554 112.9912455678 10.7910979105 0.4217426091 1
87.9779182076 112.9912455678 10.839585828 0.3254536223 1
89.7029742599 112.9912455678 10.8215742283 0.2300790621 1
91.4280303121 112.9912455678 10.9010484586 0.2750669328 1
93.1530863643 112.9912455678 10.9512007148 0.2511369226 1
94.8781424165 112.9912455678 10.8060084113 0.2897087265 1
96.6031984687 112.9912455678 10.8259448311 0.2659651661 1
98.3282545209 112.9912455678 10.7834150817 -0.1448810969 1
100.0533105731 112.9912455678 10.8327008947 0.1684368365 1
101.7783666253 112.9912455678 10.7821099331 0.0642100233 1
103.5034226775 112.9912455678 10.7741995258 -0.1151779974 1
105.2284787297 112.9912455678 10.6843005577 0.0494105699 1
106.9535347819 112.9912455678 10.6765656327 0.0756026549 1
108.6785908341 112.9912455678 10.8241982351 -0.0655864616 1
110.4036468863 112.9912455678 10.6789401258 -0.1516152252 1
112.1287029386 112.9912455678 10.6119662583 0.0474473631 1
113.8537589908 112.9912455678 10.8393088952 0.0205067369 1
115.578815043 112.9912455678 10.6232190525 0.07270857 1
117.3038710952 112.9912455678 10.5374960118 0.0247895986 1
119.0289271474 112.9912455678 10.6078698463 -0.0686011905 1
120.7539831996 112.9912455678 10.4451128742 -0.0694196503 1
122.4790392518 112.9912455678 10.5346197493 -0.0005319303 1
124.204095304 112.9912455678 10.3497849265 -0.0159620228 1
125.9291513562 112.9912455678 10.4074308198 -0.0208892332 1
127.6542074084 112.9912455678 10.4847745869 -0.2036319795 1
129.3792634606 112.9912455678 10.3805272094 -0.075390157 1
131.1043195128 112.9912455678 10.3183050701 -0.2051674485 1
132.8293755651 112.9912455678 10.2372432745 -0.1471157526 1
134.5544316173 112.9912455678 0 -0 0
-37.9511736035 111.2661895156 0 -0 0
-36.2261175513 111.2661895156 9.2087093646 0.1433607084 1
-34.5010614991 111.2661895156 9.4893218082 0.629036408 1
-32.7760054469 111.2661895156 9.4396247089 0.6250866881 1
-31.0509493947 111.2661895156 9.4729443862 0.5707681013 1
-29.3258933425 111.2661895156 9.4869911856 0.5697906108 1
-27.6008372903 111.2661895156 9.3974651172 0.7695139991 1
-25.8757812381 111.2661895156 0 -0 0
-24.1507251859 111.2661895156 0 -0 0
-22.4256691337 111.2661895156 0 -0 0
-20.7006130815 111.2661895156 0 -0 0
-18.9755570292 111.2661895156 0 -0 0
-17.250500977 111.2661895156 0 -0 0
-15.5254449248 111.2661895156 0 -0 0
-13.8003888726 111.2661895156 0 -0 0
-12.0753328204 111.2661895156 0 -0 0
-10.3502767682 111.2661895156 0 -0 0
-8.625220716 111.2661895156 0 -0 0
-6.9001646638 111.2661895156 0 -0 0
-5.1751086116 111.2661895156 0 -0 0
-3.4500525594 111.2661895156 0 -0 0
-1.7249965072 111.2661895156 9.436309741 0.8365920591 1
0.000059545 111.2661895156 9.8672308902 0.7564323516 1
1.7251155972 111.2661895156 10.0925143536 0.7711207577 1
3.4501716495 111.2661895156 9.6842495978 0.9036029424 1
5.1752277017 111.2661895156 9.9946364305 0.763886231 1
6.9002837539 111.2661895156 10.0739488882 0.7550490585 1
8.6253398061 111.2661895156 9.9229409958 0.8119834265 1
10.3503958583 111.2661895156 9.620086187 0.817147812 1
12.0754519105 111.2661895156 9.8218852003 0.8540799543 1
13.8005079627 111.2661895156 10.0719884233 0.9142360652 1
15.5255640149 111.2661895156 10.2149433292 0.8227413062 1
17.2506200671 111.2661895156 10.0757420966 0.8864276249 1
18.9756761193 111.2661895156 9.9317151044 0.8251651537 1
20.7007321715 111.2661895156 9.9850232978 0.896480834 1
22.4257882237 111.2661895156 10.2216664898 0.8865098821 1
24.150844276 111.2661895156 10.3883855204 0.8197539964 1
25.8759003282 111.2661895156 10.1581200085 0.8801088957 1
27.6009563804 111.2661895156 10.0078359801 0.8248361246 1
29.3260124326 111.2661895156 10.2091140308 0.8882235752 1
31.0510684848 111.2661895156 10.2355570005 0.8789764874 1
32.776124537 111.2661895156 10.2965233455 0.8528337567 1
34.5011805892 111.2661895156 10.0481036546 0.7271117484 1
36.2262366414 111.2661895156 10.1873926282 0.9920857145 1
37.9512926936 111.2661895156 10.3417127466 1.1047589781 1
39.6763487458 111.2661895156 10.5436077268 1.0186383606 1
41.401404798 111.2661895156 10.624288397 0.9015245754 1
43.1264608502 111.2661895156 10.43072882 0.7867331872 1
44.8515169024 111.2661895156 10.3907874326 0.8407529059 1
46.5765729547 111.2661895156 10.3842397541 0.9922091004 1
48.3016290069 111.2661895156 10.6784931946 0.775085558 1
50.0266850591 111.2661895156 10.5833407291 0.8384250252 1
51.7517411113 111.2661895156 10.4492010604 1.0024953718 1
53.4767971635 111.2661895156 10.6821371916 0.9222780841 1
55.2018532157 111.2661895156 10.5053087428 0.6957360846 1
56.9269092679 111.2661895156 10.5124733509 0.4009205527 1
58.6519653201 111.2661895156 10.4653042916 0.6234388009 1
60.3770213723 111.2661895156 10.6416885511 0.6459690665 1
62.1020774245 111.2661895156 10.8125177031 0.7462639823 1
63.8271334767 111.2661895156 10.8571066261 0.8061596119 1
65.5521895289 111.2661895156 10.7032745675 0.7613595619 1
67.2772455812 111.2661895156 10.6652168716 0.6601899772 1
69.0023016334 111.2661895156 10.3476243022 0.7720283296 1
70.7273576856 111.2661895156 10.7135676937 0.7445996436 1
72.4524137378 111.2661895156 10.7591903163 0.5270099767 1
74.17746979 111.2661895156 0 -0 0
75.9025258422 111.2661895156 0 -0 0
77.6275818944 111.2661895156 0 -0 0
79.3526379466 111.2661895156 0 -0 0
81.0776939988 111.2661895156 0 -0 0
82.802750051 111.2661895156 10.866503148 0.5195026301 1
84.5278061032 111.2661895156 10.8468162419 0.4307237318 1
86.2528621554 111.2661895156 10.9552039019 0.2818504155 1
87.9779182076 111.2661895156 10.7606106252 0.2565905795 1
89.7029742599 111.2661895156 10.9193040883 0.2280829524 1
91.4280303121 111.2661895156 10.9534381125 0.1752395125 1
93.1530863643 111.2661895156 10.9557248646 0.2079792761 1
94.8781424165 111.2661895156 10.8317988067 0.2367898842 1
96.6031984687 111.2661895156 10.8635665635 0.1602755445 1
98.3282545209 111.2661895156 10.8833521784 0.0074442827 1
100.0533105731 111.2661895156 10.8480363914 0.1347977268 1
101.7783666253 111.2661895156 10.8982928401 0.1423982983 1
103.5034226775 111.2661895156 10.8137872069 0.1492654092 1
105.2284787297 111.2661895156 10.7540163342 0.0507513633 1
106.9535347819 111.2661895156 10.8260654751 -0.0841903137 1
108.6785908341 111.2661895156 10.8758393479 -0.091226052 1
110.4036468863 111.2661895156 10.7291691555 -0.3013330494 1
112.1287029386 111.2661895156 10.6882269713 -0.2142363123 1
113.8537589908 111.2661895156 10.6605062721 -0.20524148 1
115.578815043 111.2661895156 10.5858989301 -0.1028243268 1
117.3038710952 111.2661895156 10.54886945 -0.0494311342 1
119.0289271474 111.2661895156 10.6189690937 -0.1958161681 1