TITLE = "B00028"
VARIABLES = "x", "y", "Vx", "Vy", "isValid"
ZONE T="Frame 0", I=101, J=78, F=POINT
-37.9511736035 119.8914697766 0 -0 0
-36.2261175513 119.8914697766 0 -0 0
-34.5010614991 119.8914697766 0 -0 0
-32.7760054469 119.8914697766 0 -0 0
-31.0509493947 119.8914697766 0 -0 0
-29.3258933425 119.8914697766 0 -0 0
-27.6008372903 119.8914697766 0 -0 0
-25.8757812381 119.8914697766 0 -0 0
-24.1507251859 119.8914697766 0 -0 0
-22.4256691337 119.8914697766 0 -0 0
-20.7006130815 119.8914697766 0 -0 0
-18.9755570292 119.8914697766 0 -0 0
-17.250500977 119.8914697766 0 -0 0
-15.5254449248 119.8914697766 0 -0 0
-13.8003888726 119.8914697766 0 -0 0
-12.0753328204 119.8914697766 0 -0 0
-10.3502767682 119.8914697766 0 -0 0
-8.625220716 119.8914697766 0 -0 0
-6.9001646638 119.8914697766 0 -0 0
-5.1751086116 119.8914697766 0 -0 0
-3.4500525594 119.8914697766 0 -0 0
-1.7249965072 119.8914697766 0 -0 0
0.000059545 119.8914697766 0 -0 0
1.7251155972 119.8914697766 0 -0 0
3.4501716495 119.8914697766 0 -0 0
5.1752277017 119.8914697766 0 -0 0
6.9002837539 119.8914697766 0 -0 0
8.6253398061 119.8914697766 0 -0 0
10.3503958583 119.8914697766 0 -0 0
12.0754519105 119.8914697766 0 -0 0
13.8005079627 119.8914697766 0 -0 0
15.5255640149 119.8914697766 0 -0 0
17.2506200671 119.8914697766 0 -0 0
18.9756761193 119.8914697766 0 -0 0
20.7007321715 119.8914697766 0 -0 0
22.4257882237 119.8914697766 0 -0 0
24.150844276 119.8914697766 0 -0 0
25.8759003282 119.8914697766 0 -0 0
27.6009563804 119.8914697766 0 -0 0
29.3260124326 119.8914697766 0 -0 0
31.0510684848 119.8914697766 0 -0 0
32.776124537 119.8914697766 0 -0 0
34.5011805892 119.8914697766 0 -0 0
36.2262366414 119.8914697766 0 -0 0
37.9512926936 119.8914697766 0 -0 0
39.6763487458 119.8914697766 0 -0 0
41.401404798 119.8914697766 0 -0 0
43.1264608502 119.8914697766 0 -0 0
44.8515169024 119.8914697766 0 -0 0
46.5765729547 119.8914697766 0 -0 0
48.3016290069 119.8914697766 0 -0 0
50.0266850591 119.8914697766 0 -0 0
51.7517411113 119.8914697766 0 -0 0
53.4767971635 119.8914697766 0 -0 0
55.2018532157 119.8914697766 0 -0 0
56.9269092679 119.8914697766 0 -0 0
58.6519653201 119.8914697766 0 -0 0
60.3770213723 119.8914697766 0 -0 0
62.1020774245 119.8914697766 0 -0 0
63.8271334767 119.8914697766 0 -0 0
65.5521895289 119.8914697766 0 -0 0
67.2772455812 119.8914697766 0 -0 0
69.0023016334 119.8914697766 0 -0 0
70.7273576856 119.8914697766 0 -0 0
72.4524137378 119.8914697766 0 -0 0
74.17746979 119.8914697766 0 -0 0
75.9025258422 119.8914697766 0 -0 0
77.6275818944 119.8914697766 0 -0 0
79.3526379466 119.8914697766 0 -0 0
81.0776939988 119.8914697766 0 -0 0
82.802750051 119.8914697766 0 -0 0
84.5278061032 119.8914697766 0 -0 0
86.2528621554 119.8914697766 0 -0 0
87.9779182076 119.8914697766 0 -0 0
89.7029742599 119.8914697766 0 -0 0
91.4280303121 119.8914697766 0 -0 0
93.1530863643 119.8914697766 0 -0 0
94.8781424165 119.8914697766 0 -0 0
96.6031984687 119.8914697766 0 -0 0
98.3282545209 119.8914697766 0 -0 0
100.0533105731 119.8914697766 0 -0 0
101.7783666253 119.8914697766 0 -0 0
103.5034226775 119.8914697766 0 -0 0
105.2284787297 119.8914697766 0 -0 0
106.9535347819 119.8914697766 0 -0 0
108.6785908341 119.8914697766 0 -0 0
110.4036468863 119.8914697766 0 -0 0
112.1287029386 119.8914697766 0 -0 0
113.8537589908 119.8914697766 0 -0 0
115.578815043 119.8914697766 0 -0 0
117.3038710952 119.8914697766 0 -0 0
119.0289271474 119.8914697766 0 -0 0
120.7539831996 119.8914697766 0 -0 0
122.4790392518 119.8914697766 0 -0 0
124.204095304 119.8914697766 0 -0 0
125.9291513562 119.8914697766 0 -0 0
127.6542074084 119.8914697766 0 -0 0
129.3792634606 119.8914697766 0 -0 0
131.1043195128 119.8914697766 0 -0 0
132.8293755651 119.8914697766 0 -0 0
134.5544316173 119.8914697766 0 -0 0
-37.9511736035 118.1664137244 0 -0 0
-36.2261175513 118.1664137244 9.5209771468 0.535250784 1
-34.5010614991 118.1664137244 9.5061461614 0.5270236862 1
-32.7760054469 118.1664137244 9.5557719711 0.3603965097 1
-31.0509493947 118.1664137244 9.4285199777 0.3852711075 1
-29.3258933425 118.1664137244 9.4239903442 0.4861514208 1
-27.6008372903 118.1664137244 9.4620699754 0.4631344663 1
-25.8757812381 118.1664137244 0 -0 0
-24.1507251859 118.1664137244 0 -0 0
-22.4256691337 118.1664137244 0 -0 0
-20.7006130815 118.1664137244 0 -0 0
-18.9755570292 118.1664137244 0 -0 0
-17.250500977 118.1664137244 0 -0 0
-15.5254449248 118.1664137244 0 -0 0
-13.8003888726 118.1664137244 0 -0 0
-12.0753328204 118.1664137244 0 -0 0
-10.3502767682 118.1664137244 0 -0 0
-8.625220716 118.1664137244 0 -0 0
-6.9001646638 118.1664137244 0 -0 0
-5.1751086116 118.1664137244 0 -0 0
-3.4500525594 118.1664137244 0 -0 0
-1.7249965072 118.1664137244 9.6670167002 0.6490454884 1
0.000059545 118.1664137244 9.6442067598 0.6735074289 1
1.7251155972 118.1664137244 9.7750588796 0.9227209024 1
3.4501716495 118.1664137244 9.6783764289 0.780053897 1
5.1752277017 118.1664137244 9.7031386084 0.6462021288 1
6.9002837539 118.1664137244 9.6719960068 0.6210629368 1
8.6253398061 118.1664137244 9.8423782277 0.7913793518 1
10.3503958583 118.1664137244 9.6910303386 0.7114952061 1
12.0754519105 118.1664137244 9.6614999794 0.6567612201 1
13.8005079627 118.1664137244 9.9143314018 0.7047994645 1
15.5255640149 118.1664137244 10.0978884951 0.7577004845 1
17.2506200671 118.1664137244 10.0478925276 1.0156853247 1
18.9756761193 118.1664137244 9.9082306544 0.8610923864 1
20.7007321715 118.1664137244 9.9449173959 0.9176497418 1
22.4257882237 118.1664137244 10.1406896934 0.8199527848 1
24.150844276 118.1664137244 10.0285428763 0.8847166737 1
25.8759003282 118.1664137244 10.1993638026 0.7117077041 1
27.6009563804 118.1664137244 10.1649638132 0.7539701174 1
29.3260124326 118.1664137244 9.8006875024 0.8054275222 1
31.0510684848 118.1664137244 10.155213585 0.8104136836 1
32.776124537 118.1664137244 10.2386443899 0.8495544336 1
34.5011805892 118.1664137244 10.2345589456 0.731069694 1
36.2262366414 118.1664137244 10.1262891877 0.8235762174 1
37.9512926936 118.1664137244 10.0369742463 0.7142261474 1
39.6763487458 118.1664137244 10.3527928006 0.8889803421 1
41.401404798 118.1664137244 10.381171558 0.781498883 1
43.1264608502 118.1664137244 10.534718458 0.7310820326 1
44.8515169024 118.1664137244 10.4072937244 0.9152766197 1
46.5765729547 118.1664137244 10.3042390772 0.8271982791 1
48.3016290069 118.1664137244 10.2565655067 0.9123701962 1
50.0266850591 118.1664137244 10.3321160653 0.8276589198 1
51.7517411113 118.1664137244 10.3578598483 0.683470155 1
53.4767971635 118.1664137244 10.3794386715 0.6229109834 1
55.2018532157 118.1664137244 10.4249077473 0.8146650134 1
56.9269092679 118.1664137244 10.6023640932 0.8243439519 1
58.6519653201 118.1664137244 10.6525328009 0.7626784201 1
60.3770213723 118.1664137244 10.4020100658 0.6331451585 1
62.1020774245 118.1664137244 10.5679174913 0.6792407604 1
63.8271334767 118.1664137244 10.3218174554 0.675700956 1
65.5521895289 118.1664137244 10.6375839134 0.8018836049 1
67.2772455812 118.1664137244 10.7657050919 0.6681867546 1
69.0023016334 118.1664137244 10.7195423132 0.5962047904 1
70.7273576856 118.1664137244 10.5600865994 0.6247247562 1
72.4524137378 118.1664137244 0 -0 0
74.17746979 118.1664137244 0 -0 0
75.9025258422 118.1664137244 0 -0 0
77.6275818944 118.1664137244 0 -0 0
79.3526379466 118.1664137244 0 -0 0
81.0776939988 118.1664137244 0 -0 0
82.802750051 118.1664137244 10.7907277528 0.3807812316 1
84.5278061032 118.1664137244 10.8695219897 0.3792471335 1
86.2528621554 118.1664137244 10.782052353 0.4466967223 1
87.9779182076 118.1664137244 10.8145851024 0.3129847914 1
89.7029742599 118.1664137244 10.73186171 0.3944016642 1
91.4280303121 118.1664137244 10.8275762669 0.3560012296 1
93.1530863643 118.1664137244 10.7481870358 0.3251341899 1
94.8781424165 118.1664137244 10.7215548744 0.2616247243 1
96.6031984687 118.1664137244 10.655932768 0.2635838182 1
98.3282545209 118.1664137244 10.8250509688 0.2527916647 1
100.0533105731 118.1664137244 10.6187469991 0.3668989467 1
101.7783666253 118.1664137244 10.6407343668 0.1672619285 1
103.5034226775 118.1664137244 10.7486175155 0.151863368 1
105.2284787297 118.1664137244 10.7535913383 0.2370832684 1
106.9535347819 118.1664137244 10.6887451921 0.1255259617 1
108.6785908341 118.1664137244 10.7276967504 0.0865017429 1
110.4036468863 118.1664137244 10.5990847701 0.036398841 1
112.1287029386 118.1664137244 10.6191363501 0.0224055088 1
113.8537589908 118.1664137244 10.655450192 0.1252531418 1
115.578815043 118.1664137244 10.6757622533 0.1536798826 1
117.3038710952 118.1664137244 10.5511424925 -0.0420142705 1
119.0289271474 118.1664137244 10.5800586641 -0.1269682058 1
120.7539831996 118.1664137244 10.6029645713 -0.1314046145 1
122.4790392518 118.1664137244 10.5868311791 -0.0827425858 1
124.204095304 118.1664137244 10.569554411 -0.011169166 1
125.9291513562 118.1664137244 10.4416717785 -0.1041870555 1
127.6542074084 118.1664137244 10.5238687244 0.0403362223 1
129.3792634606 118.1664137244 10.5256043527 0.0479628419 1
131.1043195128 118.1664137244 10.4930606357 -0.0244317795 1
132.8293755651 118.1664137244 10.4710595584 0.19298926 1
134.5544316173 118.1664137244 0 -0 0
-37.9511736035 116.4413576722 0 -0 0
-36.2261175513 116.4413576722 9.2754008155 0.2320463817 1
-34.5010614991 116.4413576722 9.4544419847 0.431440741 1
-32.7760054469 116.4413576722 9.4054824589 0.4264367572 1
-31.0509493947 116.4413576722 9.4307326982 0.3946292426 1
-29.3258933425 116.4413576722 9.4050437535 0.5203553637 1
-27.6008372903 116.4413576722 9.5538827959 0.4296475325 1
-25.8757812381 116.4413576722 0 -0 0
-24.1507251859 116.4413576722 0 -0 0
-22.4256691337 116.4413576722 0 -0 0
-20.7006130815 116.4413576722 0 -0 0
-18.9755570292 116.4413576722 0 -0 0
-17.250500977 116.4413576722 0 -0 0
-15.5254449248 116.4413576722 0 -0 0
-13.8003888726 116.4413576722 0 -0 0
-12.0753328204 116.4413576722 0 -0 0
-10.3502767682 116.4413576722 0 -0 0
-8.625220716 116.4413576722 0 -0 0
-6.9001646638 116.4413576722 0 -0 0
-5.1751086116 116.4413576722 0 -0 0
-3.4500525594 116.4413576722 0 -0 0
-1.7249965072 116.4413576722 9.5788615862 0.847644694 1
0.000059545 116.4413576722 9.781370754 0.7345957889 1
1.7251155972 116.4413576722 9.9484023621 0.9949551222 1
3.4501716495 116.4413576722 9.6670633126 0.7876695491 1
5.1752277017 116.4413576722 9.6530960286 0.6848904638 1
6.9002837539 116.4413576722 9.5771424093 0.7326737107 1
8.6253398061 116.4413576722 9.9343720141 0.7747620128 1
10.3503958583 116.4413576722 9.7911977556 0.6808776801 1
12.0754519105 116.4413576722 9.8715932673 0.7430847389 1
13.8005079627 116.4413576722 9.9418272645 0.8312110629 1
15.5255640149 116.4413576722 10.0481201061 0.867786757 1
17.2506200671 116.4413576722 9.9875102092 1.084860945 1
18.9756761193 116.4413576722 9.7791772268 0.7906897617 1
20.7007321715 116.4413576722 9.9556766465 0.8954169733 1
22.4257882237 116.4413576722 10.1517478122 0.8832058819 1
24.150844276 116.4413576722 10.1200458611 0.9099463487 1
25.8759003282 116.4413576722 10.1939759516 0.785443119 1
27.6009563804 116.4413576722 9.970052475 0.7973471166 1
29.3260124326 116.4413576722 9.8761969324 0.8451536698 1
31.0510684848 116.4413576722 10.1586574227 0.888020674 1
32.776124537 116.4413576722 10.2293602863 0.8022482788 1
34.5011805892 116.4413576722 10.3771245004 0.8168407182 1
36.2262366414 116.4413576722 10.136938762 0.7829712881 1
37.9512926936 116.4413576722 10.1637162446 0.7993377425 1
39.6763487458 116.4413576722 10.3477723653 0.7704558448 1
41.401404798 116.4413576722 10.2545803646 0.8019082821 1
43.1264608502 116.4413576722 10.1650159095 0.7207450359 1
44.8515169024 116.4413576722 10.232831543 0.8733473483 1
46.5765729547 116.4413576722 10.2918072622 0.6609631955 1
48.3016290069 116.4413576722 10.1315975234 0.7970290552 1
50.0266850591 116.4413576722 10.2706890796 0.6885851861 1
51.7517411113 116.4413576722 10.469655701 0.7426775654 1
53.4767971635 116.4413576722 10.3523815142 0.6406744404 1
55.2018532157 116.4413576722 10.4021608708 0.7341598253 1
56.9269092679 116.4413576722 10.5317955831 0.8300210744 1
58.6519653201 116.4413576722 10.5492670268 0.6736404115 1
60.3770213723 116.4413576722 10.4265940213 0.7368976214 1
62.1020774245 116.4413576722 10.5296459265 0.6757119237 1
63.8271334767 116.4413576722 10.6458014145 0.7322391181 1
65.5521895289 116.4413576722 10.7889838988 0.826418206 1
67.2772455812 116.4413576722 10.7271565943 0.6488658933 1
69.0023016334 116.4413576722 10.8414750033 0.5382833353 1
70.7273576856 116.4413576722 10.7314888104 0.5930310309 1
72.4524137378 116.4413576722 0 -0 0
74.17746979 116.4413576722 0 -0 0
75.9025258422 116.4413576722 0 -0 0
77.6275818944 116.4413576722 0 -0 0
79.3526379466 116.4413576722 0 -0 0
81.0776939988 116.4413576722 0 -0 0
82.802750051 116.4413576722 10.783617983 0.3801533344 1
84.5278061032 116.4413576722 10.7711340716 0.4048497082 1
86.2528621554 116.4413576722 10.7882874539 0.4452339138 1
87.9779182076 116.4413576722 10.8245793605 0.3398075155 1
89.7029742599 116.4413576722 10.5939080461 0.3058338929 1
91.4280303121 116.4413576722 10.7851973225 0.3367269808 1
93.1530863643 116.4413576722 10.8000995976 0.200064756 1
94.8781424165 116.4413576722 10.7840484627 0.3201548833 1
96.6031984687 116.4413576722 10.6828583137 0.2183505466 1
98.3282545209 116.4413576722 10.682907668 0.1228704229 1
100.0533105731 116.4413576722 10.7271209495 0.1314704203 1
101.7783666253 116.4413576722 10.8060605076 0.1409670219 1
103.5034226775 116.4413576722 10.7353768373 0.1774426364 1
105.2284787297 116.4413576722 10.8339155604 0.0549656773 1
106.9535347819 116.4413576722 10.6936641767 -0.1517084501 1
108.6785908341 116.4413576722 10.7509591057 0.0409627484 1
110.4036468863 116.4413576722 10.6629685063 0.0564545339 1
112.1287029386 116.4413576722 10.5611641696 -0.0685614328 1
113.8537589908 116.4413576722 10.6715068107 0.1329044387 1
115.578815043 116.4413576722 10.7257006407 0.1619522219 1
117.3038710952 116.4413576722 10.6594424114 -0.1711581811 1
119.0289271474 116.4413576722 10.6333312127 0.0117326283 1
120.7539831996 116.4413576722 10.5598480534 0.0140810733 1
122.4790392518 116.4413576722 10.5695434433 -0.0420266091 1
124.204095304 116.4413576722 10.5839795938 0.040163482 1
125.9291513562 116.4413576722 10.4838423378 -0.1367636755 1
127.6542074084 116.4413576722 10.4107649811 -0.0766857089 1
129.3792634606 116.4413576722 10.4132272153 0.017582491 1
131.1043195128 116.4413576722 10.4686603881 -0.0761743429 1
132.8293755651 116.4413576722 10.4536594043 0.1710663271 1
134.5544316173 116.4413576722 0 -0 0
-37.9511736035 114.71630162 0 -0 0
-36.2261175513 114.71630162 9.3499697707 0.0251885464 1
-34.5010614991 114.71630162 9.5717710097 0.4645780813 1
-32.7760054469 114.71630162 9.3912711449 0.6616239956 1
-31.0509493947 114.71630162 9.6432525755 0.5485353327 1
-29.3258933425 114.71630162 9.3141083438 0.6128618872 1
-27.6008372903 114.71630162 9.4503729919 0.4554077669 1
-25.8757812381 114.71630162 0 -0 0
-24.1507251859 114.71630162 0 -0 0
-22.4256691337 114.71630162 0 -0 0
-20.7006130815 114.71630162 0 -0 0
-18.9755570292 114.71630162 0 -0 0
-17.250500977 114.71630162 0 -0 0
-15.5254449248 114.71630162 0 -0 0
-13.8003888726 114.71630162 0 -0 0
-12.0753328204 114.71630162 0 -0 0
-10.3502767682 114.71630162 0 -0 0
-8.625220716 114.71630162 0 -0 0
-6.9001646638 114.71630162 0 -0 0
-5.1751086116 114.71630162 0 -0 0
-3.4500525594 114.71630162 0 -0 0
-1.7249965072 114.71630162 9.5822451018 0.9169601518 1
0.000059545 114.71630162 9.8199028002 0.731491948 1
1.7251155972 114.71630162 9.907731627 0.8382125273 1
3.4501716495 114.71630162 9.594040794 0.7475115509 1
5.1752277017 114.71630162 9.8372919866 0.7581912862 1
6.9002837539 114.71630162 9.8346103997 0.9183475577 1
8.6253398061 114.71630162 9.8579879152 0.8675139371 1
10.3503958583 114.71630162 10.1167500866 0.8311082413 1
12.0754519105 114.71630162 10.0910035617 0.8104698928 1
13.8005079627 114.71630162 9.8302781836 0.9362878678 1
15.5255640149 114.71630162 9.784622658 0.8425639368 1
17.2506200671 114.71630162 9.8485338132 1.0899444442 1
18.9756761193 114.71630162 9.9334205718 0.7050037367 1
20.7007321715 114.71630162 9.8233576054 0.8964602696 1
22.4257882237 114.71630162 10.0712700432 0.9036495549 1
24.150844276 114.71630162 10.2524087728 0.6932025607 1
25.8759003282 114.71630162 9.73422363 0.9096310292 1
27.6009563804 114.71630162 9.8587008115 0.9001687015 1
29.3260124326 114.71630162 10.1421264537 0.8367702832 1
31.0510684848 114.71630162 10.3407640461 0.920264152 1
32.776124537 114.71630162 10.3161581554 0.8638109891 1
34.5011805892 114.71630162 10.2756683862 0.9306313097 1
36.2262366414 114.71630162 10.4026215115 0.735466345 1
37.9512926936 114.71630162 10.3768914381 0.7716129304 1
39.6763487458 114.71630162 10.3013984596 0.8779578682 1
41.401404798 114.71630162 10.5433965998 0.8568712176 1
43.1264608502 114.71630162 10.2224863206 0.7325037124 1
44.8515169024 114.71630162 9.9381722999 0.7421428932 1
46.5765729547 114.71630162 10.0836662134 0.6659959694 1
48.3016290069 114.71630162 10.409051288 0.7251841865 1
50.0266850591 114.71630162 10.5208498827 0.6736294438 1
51.7517411113 114.71630162 10.67983673 0.7311108226 1
53.4767971635 114.71630162 10.4712377825 0.7297302715 1
55.2018532157 114.71630162 10.5724690602 0.7364904479 1
56.9269092679 114.71630162 10.5233559874 0.6715483349 1
58.6519653201 114.71630162 10.5431580537 0.7489962946 1
60.3770213723 114.71630162 10.496090445 0.9003907961 1
62.1020774245 114.71630162 10.5933815996 0.8360121454 1
63.8271334767 114.71630162 10.5843634611 0.9734229114 1
65.5521895289 114.71630162 10.3598586999 0.7117803647 1
67.2772455812 114.71630162 10.7273265927 0.6908650834 1
69.0023016334 114.71630162 10.8482118735 0.6074123432 1
70.7273576856 114.71630162 10.8139243024 0.5959868087 1
72.4524137378 114.71630162 0 -0 0
74.17746979 114.71630162 0 -0 0
75.9025258422 114.71630162 0 -0 0
77.6275818944 114.71630162 0 -0 0
79.3526379466 114.71630162 0 -0 0
81.0776939988 114.71630162 0 -0 0
82.802750051 114.71630162 10.8715510023 0.3678736953 1
84.5278061032 114.71630162 10.7944320718 0.3544616478 1
86.2528621554 114.71630162 10.8348286161 0.4451009313 1
87.9779182076 114.71630162 10.8026111861 0.4140529255 1
89.7029742599 114.71630162 10.8255445124 0.3025696503 1
91.4280303121 114.71630162 10.8052790635 0.280903086 1
93.1530863643 114.71630162 10.7826034767 0.2796747108 1
94.8781424165 114.71630162 10.7866505343 0.4910443573 1
96.6031984687 114.71630162 10.7130110861 0.1758893449 1
98.3282545209 114.71630162 10.8038916576 0.2605115093 1
100.0533105731 114.71630162 10.84807752 0.2609803757 1
101.7783666253 114.71630162 10.8522424797 0.1369514962 1
103.5034226775 114.71630162 10.837540364 0.0187642538 1
105.2284787297 114.71630162 10.877703846 -0.216561451 1
106.9535347819 114.71630162 10.809359024 -0.0898619523 1
108.6785908341 114.71630162 10.7944594909 0.1340491856 1
110.4036468863 114.71630162 10.8556177696 0.0795633424 1
112.1287029386 114.71630162 10.5701494052 0.0774082019 1
113.8537589908 114.71630162 10.6678491042 0.1057883303 1
115.578815043 114.71630162 10.6364844079 -0.0005360432 1
117.3038710952 114.71630162 10.7460839917 -0.1842631348 1
119.0289271474 114.71630162 10.6492452521 0.0660032317 1
120.7539831996 114.71630162 10.6050292287 -0.1178376491 1
122.4790392518 114.71630162 10.5342879783 -0.0568178368 1
124.204095304 114.71630162 10.5657952538 -0.0464013248 1
125.9291513562 114.71630162 10.5110009458 -0.0920349151 1
127.6542074084 114.71630162 10.4215708441 -0.1999002414 1
129.3792634606 114.71630162 10.4896606686 -0.1502826575 1
131.1043195128 114.71630162 10.409503703 -0.0012791005 1
132.8293755651 114.71630162 10.4629791528 -0.0298497916 1
134.5544316173 114.71630162 0 -0 0
-37.9511736035 112.9912455678 0 -0 0
-36.2261175513 112.9912455678 9.5103961202 0.3812117113 1
-34.5010614991 112.9912455678 9.3162497747 0.128437869 1
-32.7760054469 112.9912455678 9.4550726238 0.6567982359 1
-31.0509493947 112.9912455678 9.5070071208 0.6428679675 1
-29.3258933425 112.9912455678 9.3891681008 0.5913872564 1
-27.6008372903 112.9912455678 9.3370800568 0.6002696704 1
-25.8757812381 112.9912455678 0 -0 0
-24.1507251859 112.9912455678 0 -0 0
-22.4256691337 112.9912455678 0 -0 0
-20.7006130815 112.9912455678 0 -0 0
-18.9755570292 112.9912455678 0 -0 0
-17.250500977 112.9912455678 0 -0 0
-15.5254449248 112.9912455678 0 -0 0
-13.8003888726 112.9912455678 0 -0 0
-12.0753328204 112.9912455678 0 -0 0
-10.3502767682 112.9912455678 0 -0 0
-8.625220716 112.9912455678 0 -0 0
-6.9001646638 112.9912455678 0 -0 0
-5.1751086116 112.9912455678 0 -0 0
-3.4500525594 112.9912455678 0 -0 0
-1.7249965072 112.9912455678 0 -0 0
0.000059545 112.9912455678 9.7177008867 0.7535560891 1
1.7251155972 112.9912455678 9.5326933237 0.723994198 1
3.4501716495 112.9912455678 9.4553797176 0.6657190366 1
5.1752277017 112.9912455678 9.7216602032 0.6683923978 1
6.9002837539 112.9912455678 9.8701290879 0.846472528 1
8.6253398061 112.9912455678 9.8293514183 0.8586891032 1
10.3503958583 112.9912455678 9.9527318363 0.9922173261 1
12.0754519105 112.9912455678 10.0951822309 0.8611540793 1
13.8005079627 112.9912455678 10.0924019353 0.9151340404 1
15.5255640149 112.9912455678 10.1448793303 0.9056429226 1
17.2506200671 112.9912455678 9.7752124265 0.9129734162 1
18.9756761193 112.9912455678 9.7557448731 0.7535149605 1
20.7007321715 112.9912455678 9.6953406194 0.842558453 1
22.4257882237 112.9912455678 10.0953769065 0.7405471022 1
24.150844276 112.9912455678 10.2150283283 0.7219857497 1
25.8759003282 112.9912455678 9.8515060425 0.8233102523 1
27.6009563804 112.9912455678 10.0282988464 0.9593541767 1
29.3260124326 112.9912455678 10.0396832523 0.8974761469 1
31.0510684848 112.9912455678 10.3199584411 0.8481944468 1
32.776124537 112.9912455678 10.3439693376 0.9477175152 1
34.5011805892 112.9912455678 10.4113928782 0.850414022 1
36.2262366414 112.9912455678 10.3524390943 0.8926517581 1
37.9512926936 112.9912455678 10.312977541 0.8088247474 1
39.6763487458 112.9912455678 10.2854049048 0.8841998239 1
41.401404798 112.9912455678 10.4954707736 0.8781525437 1
43.1264608502 112.9912455678 10.3293686726 0.8662841909 1
44.8515169024 112.9912455678 10.2514600723 0.8144538864 1
46.5765729547 112.9912455678 10.2430698309 0.7471976023 1
48.3016290069 112.9912455678 10.4571142096 0.8239436332 1
50.0266850591 112.9912455678 10.5365994075 0.8944806114 1
51.7517411113 112.9912455678 10.5163257329 0.8173822452 1
53.4767971635 112.9912455678 10.4154618711 0.9730856566 1
55.2018532157 112.9912455678 10.7057532532 0.954406402 1
56.9269092679 112.9912455678 10.5363169909 0.6780768201 1
58.6519653201 112.9912455678 10.473752113 0.656251225 1
60.3770213723 112.9912455678 10.516715084 0.776139822 1
62.1020774245 112.9912455678 10.4087332265 0.8952977003 1
63.8271334767 112.9912455678 10.4690936097 0.880913646 1
65.5521895289 112.9912455678 10.3931728934 0.738416639 1
67.2772455812 112.9912455678 10.7526645731 0.8306311491 1
69.0023016334 112.9912455678 10.6163313773 0.6467176077 1
70.7273576856 112.9912455678 10.6994550884 0.6081087881 1
72.4524137378 112.9912455678 10.8525386058 0.4974864723 1
74.17746979 112.9912455678 0 -0 0
75.9025258422 112.9912455678 0 -0 0
77.6275818944 112.9912455678 0 -0 0
79.3526379466 112.9912455678 0 -0 0
81.0776939988 112.9912455678 0 -0 0
82.802750051 112.9912455678 10.8024411878 0.4661820981 1
84.5278061032 112.9912455678 10.8109657826 0.4270180419 1
86.2528621554 112.9912455678 10.8770594974 0.4251590276 1
87.9779182076 112.9912455678 10.8691408644 0.3134111582 1
89.7029742599 112.9912455678 10.9660152488 0.2837738646 1
91.4280303121 112.9912455678 10.8743888781 0.3339617657 1
93.1530863643 112.9912455678 10.8289938339 0.2074967001 1
94.8781424165 112.9912455678 10.7991591228 0.3414581447 1
96.6031984687 112.9912455678 10.7628233457 0.2208264904 1
98.3282545209 112.9912455678 10.8633773718 0.1814554201 1
100.0533105731 112.9912455678 10.8057835748 0.2279239217 1
101.7783666253 112.9912455678 10.8096085377 0.1063792117 1
103.5034226775 112.9912455678 10.8849863561 0.1197487596 1
105.2284787297 112.9912455678 10.7932009547 0.1057047021 1
106.9535347819 112.9912455678 10.8364381166 0.0338461238 1
108.6785908341 112.9912455678 10.8232166317 -0.0933469185 1
110.4036468863 112.9912455678 10.816164442 0.263017614 1
112.1287029386 112.9912455678 10.6932611161 0.1418526585 1
113.8537589908 112.9912455678 10.7113083607 0.155505994 1
115.578815043 112.9912455678 10.6589790288 0.0271928818 1
117.3038710952 112.9912455678 10.6799902769 -0.2075172644 1
119.0289271474 112.9912455678 10.5938998204 -0.0564613887 1
120.7539831996 112.9912455678 10.5401282443 -0.3508162799 1
122.4790392518 112.9912455678 10.5605883688 -0.1056951054 1
124.204095304 112.9912455678 10.5652934845 0.0318335627 1
125.9291513562 112.9912455678 10.5395716368 -0.0609910222 1
127.6542074084 112.9912455678 10.4572704984 -0.1128089881 1
129.3792634606 112.9912455678 10.4361194129 0.0685518361 1
131.1043195128 112.9912455678 10.4210060109 0.0434949013 1
132.8293755651 112.9912455678 10.4046943947 -0.2067577557 1
134.5544316173 112.9912455678 0 -0 0
-37.9511736035 111.2661895156 0 -0 0
-36.2261175513 111.2661895156 9.3736900248 0.3768301408 1
-34.5010614991 111.2661895156 9.2623520709 0.1904118656 1
-32.7760054469 111.2661895156 9.483577509 0.5763753051 1
-31.0509493947 111.2661895156 9.4685189452 0.4937259442 1
-29.3258933425 111.2661895156 9.4668408969 0.5486217029 1
-27.6008372903 111.2661895156 9.2725492302 0.4972136524 1
-25.8757812381 111.2661895156 0 -0 0
-24.1507251859 111.2661895156 0 -0 0
-22.4256691337 111.2661895156 0 -0 0
-20.7006130815 111.2661895156 0 -0 0
-18.9755570292 111.2661895156 0 -0 0
-17.250500977 111.2661895156 0 -0 0
-15.5254449248 111.2661895156 0 -0 0
-13.8003888726 111.2661895156 0 -0 0
-12.0753328204 111.2661895156 0 -0 0
-10.3502767682 111.2661895156 0 -0 0
-8.625220716 111.2661895156 0 -0 0
-6.9001646638 111.2661895156 0 -0 0
-5.1751086116 111.2661895156 0 -0 0
-3.4500525594 111.2661895156 0 -0 0
-1.7249965072 111.2661895156 0 -0 0
0.000059545 111.2661895156 9.7820370379 0.6896449339 1
1.7251155972 111.2661895156 9.5867582839 0.6340074888 1
3.4501716495 111.2661895156 9.7098288662 0.816724187 1
5.1752277017 111.2661895156 9.7461015794 0.7537754418 1
6.9002837539 111.2661895156 9.7709926287 0.7608728731 1
8.6253398061 111.2661895156 9.7335737975 0.7699540755 1
10.3503958583 111.2661895156 9.8030044154 0.9182378813 1
12.0754519105 111.2661895156 10.1517368445 0.8973856639 1
13.8005079627 111.2661895156 10.2813222024 0.8461901113 1
15.5255640149 111.2661895156 10.192125163 0.8474842923 1
17.2506200671 111.2661895156 9.9369987629 0.9279963352 1
18.9756761193 111.2661895156 9.7756675834 0.6856444888 1
20.7007321715 111.2661895156 9.8549910087 0.8350469934 1
22.4257882237 111.2661895156 9.9680426558 0.7693138397 1
24.150844276 111.2661895156 10.1526169973 0.8412190304 1
25.8759003282 111.2661895156 10.0279314306 0.8374543895 1
27.6009563804 111.2661895156 10.1415780719 0.9653233124 1
29.3260124326 111.2661895156 9.9191955482 0.9814758979 1
31.0510684848 111.2661895156 10.2306517254 0.9100368317 1
32.776124537 111.2661895156 10.0557206776 0.8396328361 1
34.5011805892 111.2661895156 10.3331936355 0.8222148597 1
36.2262366414 111.2661895156 10.3193140925 1.0128995452 1
37.9512926936 111.2661895156 10.293227571 0.8970264738 1
39.6763487458 111.2661895156 10.1981628465 0.8845809492 1
41.401404798 111.2661895156 10.2949330383 0.8415741077 1
43.1264608502 111.2661895156 10.2086945187 0.9861727879 1
44.8515169024 111.2661895156 10.1494226734 0.9343753863 1
46.5765729547 111.2661895156 10.3772286929 0.8512996586 1
48.3016290069 111.2661895156 10.3469607603 0.7756133755 1
50.0266850591 111.2661895156 10.3504950809 0.9162376587 1
51.7517411113 111.2661895156 10.3750269401 0.8190150519 1
53.4767971635 111.2661895156 10.3874148846 0.8889351006 1
55.2018532157 111.2661895156 10.5494507347 0.8738820206 1
56.9269092679 111.2661895156 10.5481154251 0.628161739 1
58.6519653201 111.2661895156 10.4864416675 0.5820825885 1
60.3770213723 111.2661895156 10.5798639885 0.7739188758 1
62.1020774245 111.2661895156 10.3560255112 0.8496668519 1
63.8271334767 111.2661895156 10.5703879513 0.8695539173 1
65.5521895289 111.2661895156 10.5383871322 0.69307232 1
67.2772455812 111.2661895156 10.621338103 0.7162195152 1
69.0023016334 111.2661895156 10.7090599954 0.7430669165 1
70.7273576856 111.2661895156 10.6476659125 0.7105725538 1
72.4524137378 111.2661895156 10.9268909503 0.5738705713 1
74.17746979 111.2661895156 0 -0 0
75.9025258422 111.2661895156 0 -0 0
77.6275818944 111.2661895156 0 -0 0
79.3526379466 111.2661895156 0 -0 0
81.0776939988 111.2661895156 0 -0 0
82.802750051 111.2661895156 10.7978841351 0.4458289081 1
84.5278061032 111.2661895156 10.817277657 0.4461647919 1
86.2528621554 111.2661895156 10.8268195001 0.3302423662 1
87.9779182076 111.2661895156 10.8984820318 0.1300789015 1
89.7029742599 111.2661895156 10.9482723561 0.2269025606 1
91.4280303121 111.2661895156 10.9543347167 0.3248325799 1
93.1530863643 111.2661895156 10.9675013634 0.1469635767 1
94.8781424165 111.2661895156 10.9076838782 0.2587690262 1
96.6031984687 111.2661895156 10.8012786184 0.2473352659 1
98.3282545209 111.2661895156 10.870868267 0.2236780757 1
100.0533105731 111.2661895156 10.8757516068 0.195066256 1
101.7783666253 111.2661895156 10.8764891803 0.1590403146 1
103.5034226775 111.2661895156 10.7547566496 0.0234049346 1
105.2284787297 111.2661895156 10.8692450569 0.002558201 1
106.9535347819 111.2661895156 10.8765412766 0.0254791887 1
108.6785908341 111.2661895156 10.8944761029 -0.0504867691 1
110.4036468863 111.2661895156 10.7353274829 -0.1341122495 1
112.1287029386 111.2661895156 10.7723021248 0.0698994843 1
113.8537589908 111.2661895156 10.7832286319 -0.2935021575 1
115.578815043 111.2661895156 10.6887726112 0.0030654542 1
117.3038710952 111.2661895156 10.6659955737 -0.1649367897 1
119.0289271474 111.2661895156 10.6294157667 -0.0642429262 1
120.7539831996 111.2661895156 10.5581343603 -0.3479071145 1
122.4790392518 111.2661895156 10.64973057 -0.0046571323 1