TITLE = "B00001"
VARIABLES = "x", "y", "Vx", "Vy", "isValid"
ZONE T="Frame 0", I=68, J=52, F=POINT
-37.5199095905 119.4602057636 9.9281204618 0.7511486931 1
-34.9323255122 119.4602057636 9.9900876036 0.3736056559 1
-32.3447414339 119.4602057636 10.1551669726 0.3225170378 1
-29.7571573555 119.4602057636 9.600122348 0.5017323183 1
-27.1695732772 119.4602057636 9.8786619085 0.2420447526 1
-24.5819891989 119.4602057636 0 -0 0
-21.9944051206 119.4602057636 0 -0 0
-19.4068210423 119.4602057636 0 -0 0
-16.819236964 119.4602057636 0 -0 0
-14.2316528857 119.4602057636 0 -0 0
-11.6440688074 119.4602057636 0 -0 0
-9.0564847291 119.4602057636 0 -0 0
-6.4689006507 119.4602057636 0 -0 0
-3.8813165724 119.4602057636 0 -0 0
-1.2937324941 119.4602057636 10.0318962309 0.4516897384 1
1.2938515842 119.4602057636 10.1326147716 0.4909607291 1
3.8814356625 119.4602057636 10.369639089 0.4049552717 1
6.4690197408 119.4602057636 10.5415211341 0.450047335 1
9.0566038191 119.4602057636 10.1902030849 0.2396688886 1
11.6441878974 119.4602057636 10.1555810008 0.3982554172 1
14.2317719758 119.4602057636 10.2146115582 0.1329332287 1
16.8193560541 119.4602057636 10.5034744058 0.2778102127 1
19.4069401324 119.4602057636 10.4839794333 -0.118050147 1
21.9945242107 119.4602057636 10.6590174155 0.3595629693 1
24.582108289 119.4602057636 10.2723589021 0.1955310096 1
27.1696923673 119.4602057636 10.3462368963 0.0350991762 1
29.7572764456 119.4602057636 10.2396287352 0.3093174882 1
32.3448605239 119.4602057636 10.3392230933 0.2296335019 1
34.9324446023 119.4602057636 10.3507418527 0.0462039074 1
37.5200286806 119.4602057636 10.2630473794 0.3562425176 1
40.1076127589 119.4602057636 10.4988981598 -0.2079025027 1
42.6951968372 119.4602057636 10.5529274752 0.3166973361 1
45.2827809155 119.4602057636 10.469175867 0.2483744494 1
47.8703649938 119.4602057636 10.4542681081 0.1859932794 1
50.4579490721 119.4602057636 10.3720848718 0.0294001185 1
53.0455331504 119.4602057636 10.2195963486 0.0178347466 1
55.6331172287 119.4602057636 10.0035750536 0.4021201378 1
58.2207013071 119.4602057636 10.3697789264 0.3448416603 1
60.8082853854 119.4602057636 10.3134354398 -0.0534480308 1
63.3958694637 119.4602057636 10.4000907296 0.2651617868 1
65.983453542 119.4602057636 10.3152725188 -0.0860191669 1
68.5710376203 119.4602057636 10.1527787699 0.5470505891 1
71.1586216986 119.4602057636 0 -0 0
73.7462057769 119.4602057636 0 -0 0
76.3337898552 119.4602057636 0 -0 0
78.9213739336 119.4602057636 0 -0 0
81.5089580119 119.4602057636 10.186737312 0.2164600004 1
84.0965420902 119.4602057636 10.3022566771 -0.0342149106 1
86.6841261685 119.4602057636 10.2570837275 -0.0580379863 1
89.2717102468 119.4602057636 10.243006767 0.1584274979 1
91.8592943251 119.4602057636 10.335798449 -0.1188398168 1
94.4468784034 119.4602057636 10.284165562 0.0552110782 1
97.0344624817 119.4602057636 9.9403877623 0.0218804333 1
99.62204656 119.4602057636 10.2212360101 -0.0461010858 1
102.2096306384 119.4602057636 10.3067369563 0.1021566719 1
104.7972147167 119.4602057636 10.0827038034 -0.0839531385 1
107.384798795 119.4602057636 10.1191657083 0.0452839969 1
109.9723828733 119.4602057636 10.3619973888 0.1799501121 1
112.5599669516 119.4602057636 10.161807876 0.0129130201 1
115.1475510299 119.4602057636 10.3275178841 0.0184653857 1
117.7351351082 119.4602057636 9.8804304398 -0.0129843097 1
120.3227191865 119.4602057636 10.4849665205 0.066568065 1
122.9103032649 119.4602057636 10.1648020406 0.0497738728 1
125.4978873432 119.4602057636 10.1908145306 -0.1318734809 1
128.0854714215 119.4602057636 9.9447254623 -0.005147934 1
130.6730554998 119.4602057636 10.1759780614 0.0058964752 1
133.2606395781 119.4602057636 9.9666415403 -0.0506033002 1
135.8482236564 119.4602057636 0 -0 0
-37.5199095905 116.8726216853 10.1807188219 0.6238514582 1
-34.9323255122 116.8726216853 10.2837487918 0.5576000837 1
-32.3447414339 116.8726216853 9.9352768441 0.4713368868 1
-29.7571573555 116.8726216853 9.960359827 0.4377101157 1
-27.1695732772 116.8726216853 10.2707466597 0.2154989613 1
-24.5819891989 116.8726216853 0 -0 0
-21.9944051206 116.8726216853 0 -0 0
-19.4068210423 116.8726216853 0 -0 0
-16.819236964 116.8726216853 0 -0 0
-14.2316528857 116.8726216853 0 -0 0
-11.6440688074 116.8726216853 0 -0 0
-9.0564847291 116.8726216853 0 -0 0
-6.4689006507 116.8726216853 0 -0 0
-3.8813165724 116.8726216853 0 -0 0
-1.2937324941 116.8726216853 10.6564674402 0.4703223805 1
1.2938515842 116.8726216853 10.199563962 0.2236767047 1
3.8814356625 116.8726216853 9.8514155595 0.1017673209 1
6.4690197408 116.8726216853 10.0108685314 0.2586428983 1
9.0566038191 116.8726216853 10.2122754518 0.0074045251 1
11.6441878974 116.8726216853 10.1371526309 0.3089075728 1
14.2317719758 116.8726216853 10.3790548043 0.107903713 1
16.8193560541 116.8726216853 10.7489054159 -0.286230615 1
19.4069401324 116.8726216853 10.6401092115 0.1223617988 1
21.9945242107 116.8726216853 10.543391116 0.2613464205 1
24.582108289 116.8726216853 10.3263032184 0.2152563024 1
27.1696923673 116.8726216853 10.6367448893 0.1104399788 1
29.7572764456 116.8726216853 10.2623481926 0.0197376314 1
32.3448605239 116.8726216853 10.4567001814 0.0687766726 1
34.9324446023 116.8726216853 10.5292867364 0.2308605061 1
37.5200286806 116.8726216853 10.4730255071 0.2305479285 1
40.1076127589 116.8726216853 10.2794275433 -0.2144227621 1
42.6951968372 116.8726216853 10.4455844826 -0.2231214682 1
45.2827809155 116.8726216853 10.5493465422 0.1497808881 1
47.8703649938 116.8726216853 10.2190068382 0.1936596567 1
50.4579490721 116.8726216853 10.2902909865 0.4252097529 1
53.0455331504 116.8726216853 10.5968583401 0.3076216175 1
55.6331172287 116.8726216853 10.5747832313 -0.3239729914 1
58.2207013071 116.8726216853 9.8386218124 0.0501412886 1
60.8082853854 116.8726216853 10.0613196557 0.4123858449 1
63.3958694637 116.8726216853 10.3444848165 0.0110361834 1
65.983453542 116.8726216853 10.2984234884 -0.2343961977 1
68.5710376203 116.8726216853 10.3678760416 -0.1612461803 1
71.1586216986 116.8726216853 0 -0 0
73.7462057769 116.8726216853 0 -0 0
76.3337898552 116.8726216853 0 -0 0
78.9213739336 116.8726216853 0 -0 0
81.5089580119 116.8726216853 0 -0 0
84.0965420902 116.8726216853 10.2724713204 -0.1295195521 1
86.6841261685 116.8726216853 10.2037727922 -0.2001689485 1
89.2717102468 116.8726216853 10.2995778321 -0.048653803 1
91.8592943251 116.8726216853 10.2850895853 0.0494503275 1
94.4468784034 116.8726216853 10.2869129547 -0.0327342798 1
97.0344624817 116.8726216853 10.2161662205 0.1413111314 1
99.62204656 116.8726216853 10.1698882816 -0.2106032829 1
102.2096306384 116.8726216853 10.161147076 0.0744729884 1
104.7972147167 116.8726216853 10.2520797437 -0.1194512625 1
107.384798795 116.8726216853 10.3981768772 0.0964836624 1
109.9723828733 116.8726216853 10.3465385063 0.0073099292 1
112.5599669516 116.8726216853 9.9787799712 -0.1445287616 1
115.1475510299 116.8726216853 10.176230317 0.2728898571 1
117.7351351082 116.8726216853 10.3866553758 0.2071333972 1
120.3227191865 116.8726216853 10.3329029932 0.0050684187 1
122.9103032649 116.8726216853 10.3446904597 -0.0039620584 1
125.4978873432 116.8726216853 10.0450436843 -0.0085259658 1
128.0854714215 116.8726216853 9.9568776026 0.0134024508 1
130.6730554998 116.8726216853 9.9822649374 -0.0233240483 1
133.2606395781 116.8726216853 9.9024836133 0.1266885311 1
135.8482236564 116.8726216853 0 -0 0
-37.5199095905 114.285037607 9.7970599569 0.6967423651 1
-34.9323255122 114.285037607 10.1981738141 0.2630080174 1
-32.3447414339 114.285037607 9.9952698115 0.3843662775 1
-29.7571573555 114.285037607 9.6861744179 0.2539432664 1
-27.1695732772 114.285037607 10.112099809 0.3562288081 1
-24.5819891989 114.285037607 0 -0 0
-21.9944051206 114.285037607 0 -0 0
-19.4068210423 114.285037607 0 -0 0
-16.819236964 114.285037607 0 -0 0
-14.2316528857 114.285037607 0 -0 0
-11.6440688074 114.285037607 0 -0 0
-9.0564847291 114.285037607 0 -0 0
-6.4689006507 114.285037607 0 -0 0
-3.8813165724 114.285037607 0 -0 0
-1.2937324941 114.285037607 10.3203066636 0.333440803 1
1.2938515842 114.285037607 10.1492252559 0.50601518 1
3.8814356625 114.285037607 10.2349291033 0.532419763 1
6.4690197408 114.285037607 10.5788686756 0.2595490992 1
9.0566038191 114.285037607 10.3815746186 0.2928797442 1
11.6441878974 114.285037607 10.4668918568 0.1790315726 1
14.2317719758 114.285037607 10.2852924865 0.2378455191 1
16.8193560541 114.285037607 10.5809607521 0.1812593736 1
19.4069401324 114.285037607 10.3588441936 0.3960385838 1
21.9945242107 114.285037607 10.2112719131 0.0178018437 1
24.582108289 114.285037607 10.4803985002 0.2885063994 1
27.1696923673 114.285037607 10.5305260793 0.025440802 1
29.7572764456 114.285037607 10.6325168657 -0.1477162307 1
32.3448605239 114.285037607 10.3553016472 0.3533073041 1
34.9324446023 114.285037607 10.5433554712 0.008069438 1
37.5200286806 114.285037607 10.739478733 0.2990915389 1
40.1076127589 114.285037607 10.2702777933 -0.2684644161 1
42.6951968372 114.285037607 10.3293631888 0.116576371 1
45.2827809155 114.285037607 10.6854878043 0.0020550607 1
47.8703649938 114.285037607 10.3494641231 0.2561916318 1
50.4579490721 114.285037607 10.4960027039 0.2104730423 1
53.0455331504 114.285037607 10.354374882 0.0902951739 1
55.6331172287 114.285037607 10.4918185509 0.1860549723 1
58.2207013071 114.285037607 10.4349047473 -0.017704506 1
60.8082853854 114.285037607 10.4775332054 0.2178158744 1
63.3958694637 114.285037607 10.2818952614 0.0681542593 1
65.983453542 114.285037607 10.6384311633 -0.5548485781 1
68.5710376203 114.285037607 10.6633852764 0.091705886 1
71.1586216986 114.285037607 0 -0 0
73.7462057769 114.285037607 0 -0 0
76.3337898552 114.285037607 0 -0 0
78.9213739336 114.285037607 0 -0 0
81.5089580119 114.285037607 0 -0 0
84.0965420902 114.285037607 10.4189769983 0.0001357245 1
86.6841261685 114.285037607 10.247314306 0.0147638086 1
89.2717102468 114.285037607 10.2820762274 -0.1490337179 1
91.8592943251 114.285037607 10.2638809197 0.0953156092 1
94.4468784034 114.285037607 10.3399990535 -0.1945329547 1
97.0344624817 114.285037607 10.2918840356 -0.019600536 1
99.62204656 114.285037607 10.2567738918 -0.0024060251 1
102.2096306384 114.285037607 9.8976578536 -0.1271176399 1
104.7972147167 114.285037607 10.0494142871 -0.1352227227 1
107.384798795 114.285037607 10.2042334329 0.1229759864 1
109.9723828733 114.285037607 10.4007816906 0.1565931609 1
112.5599669516 114.285037607 10.2547476211 0.1942327157 1
115.1475510299 114.285037607 10.2873489182 -0.0331962914 1
117.7351351082 114.285037607 9.9965694763 -0.1407668625 1
120.3227191865 114.285037607 10.3134957618 -0.2149231605 1
122.9103032649 114.285037607 10.1816702643 0.0254599954 1
125.4978873432 114.285037607 10.1610099805 0.0712663259 1
128.0854714215 114.285037607 10.1092180627 0.010116273 1
130.6730554998 114.285037607 10.1615199756 -0.0684243373 1
133.2606395781 114.285037607 10.0482325243 -0.0539196391 1
135.8482236564 114.285037607 0 -0 0
-37.5199095905 111.6974535286 9.6966594776 0.188443175 1
-34.9323255122 111.6974535286 9.9071448585 0.3180065976 1
-32.3447414339 111.6974535286 10.3658250937 0.3188853794 1
-29.7571573555 111.6974535286 9.8576835633 0.5502010424 1
-27.1695732772 111.6974535286 9.9485751024 0.2259949887 1
-24.5819891989 111.6974535286 0 -0 0
-21.9944051206 111.6974535286 0 -0 0
-19.4068210423 111.6974535286 0 -0 0
-16.819236964 111.6974535286 0 -0 0
-14.2316528857 111.6974535286 0 -0 0
-11.6440688074 111.6974535286 0 -0 0
-9.0564847291 111.6974535286 0 -0 0
-6.4689006507 111.6974535286 0 -0 0
-3.8813165724 111.6974535286 0 -0 0
-1.2937324941 111.6974535286 9.9625889989 0.3018211092 1
1.2938515842 111.6974535286 10.2070658248 0.3623789098 1
3.8814356625 111.6974535286 10.2648159107 0.5361926297 1
6.4690197408 111.6974535286 10.2729785735 0.3183328848 1
9.0566038191 111.6974535286 10.5042476241 0.609707321 1
11.6441878974 111.6974535286 10.1384001995 0.3935503015 1
14.2317719758 111.6974535286 10.5593435421 0.4156487165 1
16.8193560541 111.6974535286 10.4785833565 0.6797343041 1
19.4069401324 111.6974535286 10.5684576474 0.0988293654 1
21.9945242107 111.6974535286 10.3554634199 -0.0766404674 1
24.582108289 111.6974535286 10.4419130665 0.3098590152 1
27.1696923673 111.6974535286 10.5124267384 -0.0141317986 1
29.7572764456 111.6974535286 10.8379763275 0.4285768171 1
32.3448605239 111.6974535286 10.5004418545 0.2378578577 1
34.9324446023 111.6974535286 10.6189115136 -0.0322105751 1
37.5200286806 111.6974535286 10.4264898288 0.0949015809 1
40.1076127589 111.6974535286 10.5197202162 0.3531633539 1
42.6951968372 111.6974535286 10.2356063548 0.3292470533 1
45.2827809155 111.6974535286 9.9239390507 -0.2098163551 1
47.8703649938 111.6974535286 10.433829919 0.1268269975 1
50.4579490721 111.6974535286 10.2046145582 -0.0727469568 1
53.0455331504 111.6974535286 10.2465931839 0.0229566325 1
55.6331172287 111.6974535286 10.5110393325 -0.063375112 1
58.2207013071 111.6974535286 10.5071458218 -0.0559047812 1
60.8082853854 111.6974535286 10.2782430387 0.0750090316 1
63.3958694637 111.6974535286 10.4229143795 0.4982363844 1
65.983453542 111.6974535286 10.2146334934 0.2205769767 1
68.5710376203 111.6974535286 10.2606043385 0.0314154216 1
71.1586216986 111.6974535286 0 -0 0
73.7462057769 111.6974535286 0 -0 0
76.3337898552 111.6974535286 0 -0 0
78.9213739336 111.6974535286 0 -0 0
81.5089580119 111.6974535286 0 -0 0
84.0965420902 111.6974535286 10.3051905196 -0.1170712856 1
86.6841261685 111.6974535286 10.2041347242 -0.0028639239 1
89.2717102468 111.6974535286 10.2654136468 -0.2461439065 1
91.8592943251 111.6974535286 10.34991928 -0.006472276 1
94.4468784034 111.6974535286 10.0302785047 0.1005128975 1
97.0344624817 111.6974535286 10.2936470831 -0.0427271668 1
99.62204656 111.6974535286 10.1568916333 -0.0750104026 1
102.2096306384 111.6974535286 10.3162815413 -0.0477270378 1
104.7972147167 111.6974535286 10.0877050453 -0.2046149538 1
107.384798795 111.6974535286 9.9675381446 -0.0301774497 1
109.9723828733 111.6974535286 10.3008171749 -0.0865757744 1
112.5599669516 111.6974535286 10.2105124043 -0.148940493 1
115.1475510299 111.6974535286 10.388698098 -0.0203353676 1
117.7351351082 111.6974535286 10.1567353445 0.0841450722 1
120.3227191865 111.6974535286 10.3301610843 0.1208702004 1
122.9103032649 111.6974535286 10.1748292015 0.1859521507 1
125.4978873432 111.6974535286 10.1105780496 -0.0005620913 1
128.0854714215 111.6974535286 10.2230429281 0.1628159232 1
130.6730554998 111.6974535286 10.405889867 0.0286502064 1
133.2606395781 111.6974535286 9.9457399686 -0.0504113666 1
135.8482236564 111.6974535286 0 -0 0
-37.5199095905 109.1098694503 9.9409525956 0.5772170711 1
-34.9323255122 109.1098694503 10.4847032972 0.3992370206 1
-32.3447414339 109.1098694503 10.0033145723 0.508423947 1
-29.7571573555 109.1098694503 10.1894106732 -0.1333404022 1
-27.1695732772 109.1098694503 9.8056530995 0.5617650433 1
-24.5819891989 109.1098694503 0 -0 0
-21.9944051206 109.1098694503 0 -0 0
-19.4068210423 109.1098694503 0 -0 0
-16.819236964 109.1098694503 0 -0 0
-14.2316528857 109.1098694503 0 -0 0
-11.6440688074 109.1098694503 0 -0 0
-9.0564847291 109.1098694503 0 -0 0
-6.4689006507 109.1098694503 0 -0 0
-3.8813165724 109.1098694503 0 -0 0
-1.2937324941 109.1098694503 10.2980259116 0.3464031774 1
1.2938515842 109.1098694503 10.572203095 0.0670328185 1
3.8814356625 109.1098694503 10.2046474611 0.5787922978 1
6.4690197408 109.1098694503 10.4939901428 0.1621414136 1
9.0566038191 109.1098694503 10.5854300637 0.3868326246 1
11.6441878974 109.1098694503 10.4713145559 0.2831075808 1
14.2317719758 109.1098694503 10.4143596237 0.0235077562 1
16.8193560541 109.1098694503 10.4671687896 0.2713077757 1
19.4069401324 109.1098694503 0 -0 0
21.9945242107 109.1098694503 10.3879660083 0.3722264757 1
24.582108289 109.1098694503 10.3909108185 0.3613260168 1
27.1696923673 109.1098694503 10.4028244128 0.2964264034 1
29.7572764456 109.1098694503 10.5764146671 0.3001677381 1
32.3448605239 109.1098694503 10.5344634605 -0.2308728447 1
34.9324446023 109.1098694503 10.3549397153 0.2285134321 1
37.5200286806 109.1098694503 10.6426866059 0.0638933328 1
40.1076127589 109.1098694503 10.2712539128 0.0640921212 1
42.6951968372 109.1098694503 10.5426727358 0.2336147536 1
45.2827809155 109.1098694503 10.1463846383 0.237909954 1
47.8703649938 109.1098694503 10.4647038135 0.2080327433 1
50.4579490721 109.1098694503 10.5115904562 0.0356832028 1
53.0455331504 109.1098694503 10.6140391414 -0.199371053 1
55.6331172287 109.1098694503 10.3470868881 0.0891956684 1
58.2207013071 109.1098694503 10.3809494634 0.0363152128 1
60.8082853854 109.1098694503 10.4609172373 0.0911246014 1
63.3958694637 109.1098694503 10.6563001838 -0.1751572553 1
65.983453542 109.1098694503 10.1326668679 0.1467963203 1
68.5710376203 109.1098694503 10.3565519577 -0.2133369661 1
71.1586216986 109.1098694503 10.4665052477 0.022882601 1
73.7462057769 109.1098694503 0 -0 0
76.3337898552 109.1098694503 0 -0 0
78.9213739336 109.1098694503 0 -0 0
81.5089580119 109.1098694503 0 -0 0
84.0965420902 109.1098694503 10.2657234825 -0.0126306035 1
86.6841261685 109.1098694503 10.3598724094 0.0953923826 1
89.2717102468 109.1098694503 10.0796054463 -0.0154314635 1
91.8592943251 109.1098694503 10.2682295873 0.1277098922 1
94.4468784034 109.1098694503 10.2944806234 0.0143456675 1
97.0344624817 109.1098694503 10.2646596219 -0.2682149024 1
99.62204656 109.1098694503 10.48901632 0.0244523438 1
102.2096306384 109.1098694503 10.1545116564 -0.2230748557 1
104.7972147167 109.1098694503 10.3370268242 -0.1840657174 1
107.384798795 109.1098694503 10.4033261821 -0.0732761452 1
109.9723828733 109.1098694503 10.3245566224 -0.0196416646 1
112.5599669516 109.1098694503 10.0797260903 0.1450977077 1
115.1475510299 109.1098694503 9.9945870761 0.0651381595 1
117.7351351082 109.1098694503 10.4494094455 -0.1142114745 1
120.3227191865 109.1098694503 10.2122123879 -0.1112885996 1
122.9103032649 109.1098694503 10.0302894723 -0.1911316167 1
125.4978873432 109.1098694503 10.1699102169 -0.148640254 1
128.0854714215 109.1098694503 10.1898603463 -0.1202299646 1
130.6730554998 109.1098694503 10.302741995 -0.1319365448 1
133.2606395781 109.1098694503 10.0683307168 0.1725044584 1
135.8482236564 109.1098694503 0 -0 0
-37.5199095905 106.522285372 10.606526311 0.5524178758 1
-34.9323255122 106.522285372 9.7372479555 0.8557497768 1
-32.3447414339 106.522285372 9.8713958499 0.7263248206 1
-29.7571573555 106.522285372 10.4361824768 0.2919845109 1
-27.1695732772 106.522285372 10.1245398498 0.4353726384 1
-24.5819891989 106.522285372 9.9550322979 0.414339455 1
-21.9944051206 106.522285372 0 -0 0
-19.4068210423 106.522285372 0 -0 0
-16.819236964 106.522285372 0 -0 0
-14.2316528857 106.522285372 0 -0 0
-11.6440688074 106.522285372 0 -0 0
-9.0564847291 106.522285372 0 -0 0
-6.4689006507 106.522285372 0 -0 0
-3.8813165724 106.522285372 0 -0 0
-1.2937324941 106.522285372 10.5901379213 0.472206072 1
1.2938515842 106.522285372 10.5810512351 0.6294943067 1
3.8814356625 106.522285372 10.3636617276 0.5442346486 1
6.4690197408 106.522285372 10.5872150464 0.4346282101 1
9.0566038191 106.522285372 10.6866613413 0.6793216468 1
11.6441878974 106.522285372 10.6096630548 0.4115728689 1
14.2317719758 106.522285372 10.4710211717 0.0684065149 1
16.8193560541 106.522285372 10.5160871868 0.4227790507 1
19.4069401324 106.522285372 10.5969954355 0.6152377513 1
21.9945242107 106.522285372 10.4690332877 0.3130341458 1
24.582108289 106.522285372 10.3867019883 0.3971435731 1
27.1696923673 106.522285372 10.4287436779 -0.0004537859 1
29.7572764456 106.522285372 10.6476247839 0.5076589544 1
32.3448605239 106.522285372 10.2100078931 -0.0406940414 1
34.9324446023 106.522285372 10.5294430252 0.0432097428 1
37.5200286806 106.522285372 10.5328402504 0.2722071218 1
40.1076127589 106.522285372 10.6955423844 0.1632806767 1
42.6951968372 106.522285372 10.5094764444 -0.08399838 1
45.2827809155 106.522285372 10.4110638491 0.0020865927 1
47.8703649938 106.522285372 10.6611204597 -0.015054451 1
50.4579490721 106.522285372 10.3326315442 -0.2127652781 1
53.0455331504 106.522285372 10.4744650093 0.1163597602 1
55.6331172287 106.522285372 10.1680155578 -0.1936966725 1
58.2207013071 106.522285372 10.5795651205 0.2542722955 1
60.8082853854 106.522285372 10.2612048166 -0.1168012075 1
63.3958694637 106.522285372 10.2807409177 -0.1930811139 1
65.983453542 106.522285372 10.2454909365 -0.4318712207 1
68.5710376203 106.522285372 10.1072685655 0.0157988793 1
71.1586216986 106.522285372 10.2142496262 -0.2236904143 1
73.7462057769 106.522285372 0 -0 0
76.3337898552 106.522285372 0 -0 0
78.9213739336 106.522285372 0 -0 0
81.5089580119 106.522285372 0 -0 0
84.0965420902 106.522285372 10.2750871015 -0.1595023262 1
86.6841261685 106.522285372 10.2438786941 -0.1663995981 1
89.2717102468 106.522285372 10.1066488941 -0.173599851 1
91.8592943251 106.522285372 10.2675002395 0.0999096776 1
94.4468784034 106.522285372 10.0983354262 -0.0396863898 1
97.0344624817 106.522285372 10.170990529 -0.1444108595 1
99.62204656 106.522285372 10.1443473999 -0.2807769582 1
102.2096306384 106.522285372 10.0551832635 -0.3562164695 1
104.7972147167 106.522285372 10.182643642 0.1234475948 1
107.384798795 106.522285372 10.2077842049 -0.0740836374 1
109.9723828733 106.522285372 10.1345889461 0.1800995461 1
112.5599669516 106.522285372 10.304307625 0.0517315958 1
115.1475510299 106.522285372 10.1584435538 -0.1934265945 1
117.7351351082 106.522285372 10.24243645 -0.0375326204 1
120.3227191865 106.522285372 10.1768527303 -0.1088003173 1
122.9103032649 106.522285372 10.2824957394 0.0196279551 1
125.4978873432 106.522285372 10.1090041939 0.0116764192 1
128.0854714215 106.522285372 10.1596856385 -0.0770682052 1
130.6730554998 106.522285372 10.1953496479 0.0543967312 1
133.2606395781 106.522285372 10.1941267566 0.1170863661 1
135.8482236564 106.522285372 0 -0 0
-37.5199095905 103.9347012937 9.7974657594 0.4573120227 1
-34.9323255122 103.9347012937 10.1853334546 0.508274513 1
-32.3447414339 103.9347012937 10.0050913293 0.8857051319 1
-29.7571573555 103.9347012937 10.1420661317 0.3056117983 1
-27.1695732772 103.9347012937 9.9282767506 0.5100156252 1
-24.5819891989 103.9347012937 10.0975567241 0.5643218734 1
-21.9944051206 103.9347012937 0 -0 0
-19.4068210423 103.9347012937 0 -0 0
-16.819236964 103.9347012937 0 -0 0
-14.2316528857 103.9347012937 0 -0 0
-11.6440688074 103.9347012937 0 -0 0
-9.0564847291 103.9347012937 0 -0 0
-6.4689006507 103.9347012937 0 -0 0
-3.8813165724 103.9347012937 0 -0 0
-1.2937324941 103.9347012937 10.3994600905 0.3287960092 1
1.2938515842 103.9347012937 10.3128349617 0.4589626518 1
3.8814356625 103.9347012937 10.5301147929 0.6936371533 1
6.4690197408 103.9347012937 10.5267175678 0.5585199941 1
9.0566038191 103.9347012937 10.6547756824 0.4260624866 1
11.6441878974 103.9347012937 10.6801794686 0.4219098655 1
14.2317719758 103.9347012937 10.5979496198 0.3771290089 1
16.8193560541 103.9347012937 10.5000333101 0.2532084348 1
19.4069401324 103.9347012937 10.5384940666 0.298333401 1
21.9945242107 103.9347012937 10.5649863907 0.2457956841 1
24.582108289 103.9347012937 10.5432649882 0.2041803613 1
27.1696923673 103.9347012937 10.4083466174 0.1636768826 1
29.7572764456 103.9347012937 10.5496399264 0.0576911348 1
32.3448605239 103.9347012937 10.5014453932 -0.1060707469 1
34.9324446023 103.9347012937 10.5523599001 0.2310798588 1
37.5200286806 103.9347012937 10.4299172149 0.0489992835 1
40.1076127589 103.9347012937 10.6676516867 -0.1448577906 1
42.6951968372 103.9347012937 10.5244472672 -0.1018358686 1
45.2827809155 103.9347012937 10.3710813331 0.0942544904 1
47.8703649938 103.9347012937 10.3738808221 -0.0680322444 1
50.4579490721 103.9347012937 10.5533634387 0.1655153325 1
53.0455331504 103.9347012937 10.6212366524 -0.1112227938 1
55.6331172287 103.9347012937 10.6144613954 -0.2513439368 1
58.2207013071 103.9347012937 10.3702231156 -0.2649780789 1
60.8082853854 103.9347012937 10.3464343138 -0.1285831902 1
63.3958694637 103.9347012937 10.4037319847 -0.2809592951 1
65.983453542 103.9347012937 10.5356287718 0.0441817495 1
68.5710376203 103.9347012937 10.4067672778 -0.2705112511 1
71.1586216986 103.9347012937 10.3595269289 -0.2287300429 1
73.7462057769 103.9347012937 0 -0 0
76.3337898552 103.9347012937 0 -0 0
78.9213739336 103.9347012937 0 -0 0
81.5089580119 103.9347012937 0 -0 0
84.0965420902 103.9347012937 10.2965918932 0.0588824943 1
86.6841261685 103.9347012937 10.0359158694 -0.1563395343 1
89.2717102468 103.9347012937 10.1339445975 -0.1732516286 1
91.8592943251 103.9347012937 9.9892239023 -0.0743866183 1
94.4468784034 103.9347012937 10.1928517689 -0.1160759726 1
97.0344624817 103.9347012937 10.2881248785 -0.0160799249 1
99.62204656 103.9347012937 10.2331304111 -0.1215159199 1
102.2096306384 103.9347012937 10.2526911894 0.0646843735 1
104.7972147167 103.9347012937 10.3416798437 0.0722520422 1
107.384798795 103.9347012937 10.2343012062 -0.0341778948 1
109.9723828733 103.9347012937 10.414921715 -0.0709743126 1
112.5599669516 103.9347012937 10.3498699256 -0.2332884665 1
115.1475510299 103.9347012937 10.2862877995 -0.1991517003 1
117.7351351082 103.9347012937 10.4043489142 -0.0400003384 1
120.3227191865 103.9347012937 10.2878863324 -0.0145321173 1
122.9103032649 103.9347012937 10.2728305105 -0.0241000085 1
125.4978873432 103.9347012937 10.0500970224 0.1342082164 1
128.0854714215 103.9347012937 10.2276493351 0.1703040765 1
130.6730554998 103.9347012937 9.9479636567 -0.0307381701 1
133.2606395781 103.9347012937 10.257127598 -0.0106811062 1
135.8482236564 103.9347012937 0 -0 0
-37.5199095905 101.3471172154 9.8537215049 0.1919898342 1
-34.9323255122 101.3471172154 9.901680234 0.476029664 1
-32.3447414339 101.3471172154 10.2407940465 0.7799688978 1
-29.7571573555 101.3471172154 10.0596333817 0.4810925988 1
-27.1695732772 101.3471172154 10.307016631 0.5068939618 1
-24.5819891989 101.3471172154 9.9673462109 0.6017832042 1
-21.9944051206 101.3471172154 0 -0 0
-19.4068210423 101.3471172154 0 -0 0
-16.819236964 101.3471172154 0 -0 0
-14.2316528857 101.3471172154 0 -0 0
-11.6440688074 101.3471172154 0 -0 0
-9.0564847291 101.3471172154 0 -0 0
-6.4689006507 101.3471172154 0 -0 0
-3.8813165724 101.3471172154 0 -0 0
-1.2937324941 101.3471172154 10.3498205713 0.1787354464 1
1.2938515842 101.3471172154 10.2523840956 0.4924249084 1
3.8814356625 101.3471172154 10.7148783261 0.6953261692 1
6.4690197408 101.3471172154 10.4639388209 0.48999969 1
9.0566038191 101.3471172154 10.5110119134 0.4492562942 1
11.6441878974 101.3471172154 10.7126189932 0.3871904437 1
14.2317719758 101.3471172154 10.6550855181 0.2348938541 1
16.8193560541 101.3471172154 10.6659160584 0.4499349167 1
19.4069401324 101.3471172154 10.608933707 0.4389549424 1
21.9945242107 101.3471172154 10.608692419 0.4478387273 1
24.582108289 101.3471172154 10.6871768202 0.2627201169 1
27.1696923673 101.3471172154 10.5281680376 0.0117189188 1
29.7572764456 101.3471172154 10.5765599883 0.3300435778 1
32.3448605239 101.3471172154 10.4567824386 0.2135316417 1
34.9324446023 101.3471172154 10.7820989654 -0.092518862 1
37.5200286806 101.3471172154 10.5300599548 -0.1063312283 1
40.1076127589 101.3471172154 10.6117606151 0.0834623369 1
42.6951968372 101.3471172154 10.795931896 -0.0976914732 1
45.2827809155 101.3471172154 10.6781586817 -0.0339393487 1
47.8703649938 101.3471172154 10.5956710935 0.2284147234 1
50.4579490721 101.3471172154 10.6607722372 0.0354473986 1
53.0455331504 101.3471172154 10.6726145419 -0.1078817778 1
55.6331172287 101.3471172154 10.589847279 0.0256957995 1
58.2207013071 101.3471172154 10.2104904691 0.1470924464 1
60.8082853854 101.3471172154 10.4907437226 -0.0901882395 1
63.3958694637 101.3471172154 10.3569988889 -0.3514962733 1
65.983453542 101.3471172154 10.4740125943 -0.0356667514 1
68.5710376203 101.3471172154 10.433136216 -0.041517985 1
71.1586216986 101.3471172154 10.4558227705 -0.2329758889 1
73.7462057769 101.3471172154 0 -0 0
76.3337898552 101.3471172154 0 -0 0
78.9213739336 101.3471172154 0 -0 0
81.5089580119 101.3471172154 0 -0 0
84.0965420902 101.3471172154 10.3144307527 -0.1025624745 1
86.6841261685 101.3471172154 10.087203276 -0.2641856672 1
89.2717102468 101.3471172154 10.2070109866 -0.1838765257 1
91.8592943251 101.3471172154 10.1203748902 -0.1614915812 1
94.4468784034 101.3471172154 10.2372515002 -0.0304818016 1
97.0344624817 101.3471172154 10.214104305 -0.3096478882 1
99.62204656 101.3471172154 10.3609883664 -0.1739220253 1
102.2096306384 101.3471172154 10.2854350658 0.0508377335 1
104.7972147167 101.3471172154 10.1053766483 0.0502578197 1
107.384798795 101.3471172154 10.2758164493 -0.0201749659 1
109.9723828733 101.3471172154 10.2889940636 -0.0049244684 1
112.5599669516 101.3471172154 10.2107180475 -0.0498355657 1
115.1475510299 101.3471172154 10.1477857537 -0.1444615848 1
117.7351351082 101.3471172154 9.9431570904 -0.1202409323 1
120.3227191865 101.3471172154 10.1935756329 -0.1248500812 1
122.9103032649 101.3471172154 10.2376929475 -0.0787284311 1
125.4978873432 101.3471172154 10.2195990905 -0.1334610462 1
128.0854714215 101.3471172154 10.2140960793 -0.0285679491 1
130.6730554998 101.3471172154 9.846735121 -0.0275232818 1
133.2606395781 101.3471172154 9.9823773557 -0.0247320185 1
135.8482236564 101.3471172154 0 -0 0
-37.5199095905 98.7595331371 9.6733011555 0.479189714 1
-34.9323255122 98.7595331371 10.2740259828 0.7260273235 1
-32.3447414339 98.7595331371 9.5830046106 0.1415743547 1
-29.7571573555 98.7595331371 10.0912283983 0.3574434737 1
-27.1695732772 98.7595331371 9.8455972287 0.4567869471 1
-24.5819891989 98.7595331371 9.7915404942 0.448659929 1
-21.9944051206 98.7595331371 0 -0 0
-19.4068210423 98.7595331371 0 -0 0
-16.819236964 98.7595331371 0 -0 0
-14.2316528857 98.7595331371 0 -0 0
-11.6440688074 98.7595331371 0 -0 0
-9.0564847291 98.7595331371 0 -0 0
-6.4689006507 98.7595331371 0 -0 0
-3.8813165724 98.7595331371 0 -0 0
-1.2937324941 98.7595331371 10.4718958406 0.4967763179 1
1.2938515842 98.7595331371 10.1359050624 0.5068062208 1
3.8814356625 98.7595331371 10.591380006 0.279096168 1