TITLE = "B00003"
VARIABLES = "x", "y", "Vx", "Vy", "isValid"
ZONE T="Frame 0", I=68, J=52, F=POINT
-37.5199095905 119.4602057636 9.8902217966 -0.0468249497 1
-34.9323255122 119.4602057636 9.5469293148 0.0642580067 1
-32.3447414339 119.4602057636 9.6923272615 0.514686467 1
-29.7571573555 119.4602057636 10.1977351087 -0.0760057155 1
-27.1695732772 119.4602057636 9.7401708304 0.2594298262 1
-24.5819891989 119.4602057636 0 -0 0
-21.9944051206 119.4602057636 0 -0 0
-19.4068210423 119.4602057636 0 -0 0
-16.819236964 119.4602057636 0 -0 0
-14.2316528857 119.4602057636 0 -0 0
-11.6440688074 119.4602057636 0 -0 0
-9.0564847291 119.4602057636 0 -0 0
-6.4689006507 119.4602057636 0 -0 0
-3.8813165724 119.4602057636 0 -0 0
-1.2937324941 119.4602057636 10.3276632052 0.5733208185 1
1.2938515842 119.4602057636 10.3476188184 0.6085694288 1
3.8814356625 119.4602057636 10.1726493839 0.2228020358 1
6.4690197408 119.4602057636 10.5225608338 0.2601386097 1
9.0566038191 119.4602057636 10.3631023781 0.1270915917 1
11.6441878974 119.4602057636 10.3142305934 0.3096286949 1
14.2317719758 119.4602057636 10.5953886769 0.4585472526 1
16.8193560541 119.4602057636 10.3862221542 0.3140486521 1
19.4069401324 119.4602057636 10.1915054916 0.2398087259 1
21.9945242107 119.4602057636 10.3551343908 -0.0441351371 1
24.582108289 119.4602057636 10.1916480709 0.0079707293 1
27.1696923673 119.4602057636 10.6323331578 0.0890147024 1
29.7572764456 119.4602057636 10.7067211471 -0.1646461474 1
32.3448605239 119.4602057636 10.1314384927 0.260549896 1
34.9324446023 119.4602057636 10.4973188202 -0.184287812 1
37.5200286806 119.4602057636 10.2748293621 0.3387244615 1
40.1076127589 119.4602057636 10.3916456501 0.3603430424 1
42.6951968372 119.4602057636 10.2445861066 -0.0540567345 1
45.2827809155 119.4602057636 10.2002905678 -0.1133080155 1
47.8703649938 119.4602057636 10.5154154192 0.005238417 1
50.4579490721 119.4602057636 10.4610982033 -0.0657482342 1
53.0455331504 119.4602057636 10.5096299913 0.3552348661 1
55.6331172287 119.4602057636 10.3203560179 0.0801089822 1
58.2207013071 119.4602057636 10.4125664152 -0.5420520891 1
60.8082853854 119.4602057636 10.4231803447 -0.0984372725 1
63.3958694637 119.4602057636 10.673996464 0.1451621425 1
65.983453542 119.4602057636 10.2638507587 0.2758922474 1
68.5710376203 119.4602057636 10.4222426118 0.2962221312 1
71.1586216986 119.4602057636 0 -0 0
73.7462057769 119.4602057636 0 -0 0
76.3337898552 119.4602057636 0 -0 0
78.9213739336 119.4602057636 0 -0 0
81.5089580119 119.4602057636 10.3366676342 0.094808356 1
84.0965420902 119.4602057636 10.5119030338 0.0261084568 1
86.6841261685 119.4602057636 10.4035647282 -0.2428659544 1
89.2717102468 119.4602057636 10.2974939813 0.2916856428 1
91.8592943251 119.4602057636 10.1440704671 -0.0155575913 1
94.4468784034 119.4602057636 10.1176357232 0.0658990392 1
97.0344624817 119.4602057636 9.8104185372 -0.0901004984 1
99.62204656 119.4602057636 10.2832716997 0.1240823467 1
102.2096306384 119.4602057636 10.1811849464 -0.1010749889 1
104.7972147167 119.4602057636 10.1421209699 -0.3248531442 1
107.384798795 119.4602057636 10.2618052947 -0.0846715187 1
109.9723828733 119.4602057636 10.24622851 0.1021388495 1
112.5599669516 119.4602057636 10.3004250819 -0.0091086215 1
115.1475510299 119.4602057636 10.1628717367 -0.21900175 1
117.7351351082 119.4602057636 10.0539466626 -0.1453965757 1
120.3227191865 119.4602057636 9.9962870597 -0.0715460006 1
122.9103032649 119.4602057636 10.1383316518 -0.0374106054 1
125.4978873432 119.4602057636 10.121765038 -0.1646392926 1
128.0854714215 119.4602057636 10.2980917174 0.0230100997 1
130.6730554998 119.4602057636 10.1456525486 0.0411670207 1
133.2606395781 119.4602057636 10.1427982214 -0.0875039106 1
135.8482236564 119.4602057636 0 -0 0
-37.5199095905 116.8726216853 9.7926646769 0.6011128074 1
-34.9323255122 116.8726216853 10.1047761703 0.4054378476 1
-32.3447414339 116.8726216853 9.8177613693 0.4877047122 1
-29.7571573555 116.8726216853 9.586665059 0.4562920326 1
-27.1695732772 116.8726216853 10.712986409 0.4693846477 1
-24.5819891989 116.8726216853 0 -0 0
-21.9944051206 116.8726216853 0 -0 0
-19.4068210423 116.8726216853 0 -0 0
-16.819236964 116.8726216853 0 -0 0
-14.2316528857 116.8726216853 0 -0 0
-11.6440688074 116.8726216853 0 -0 0
-9.0564847291 116.8726216853 0 -0 0
-6.4689006507 116.8726216853 0 -0 0
-3.8813165724 116.8726216853 0 -0 0
-1.2937324941 116.8726216853 10.3300678594 0.4931144985 1
1.2938515842 116.8726216853 10.1297165739 0.4602157042 1
3.8814356625 116.8726216853 10.1593072551 0.1604386881 1
6.4690197408 116.8726216853 10.5232901816 0.5042603583 1
9.0566038191 116.8726216853 10.52881787 -0.0482370328 1
11.6441878974 116.8726216853 10.4173839492 0.2676774883 1
14.2317719758 116.8726216853 10.5501883082 0.1371009303 1
16.8193560541 116.8726216853 10.5315049408 0.3826169396 1
19.4069401324 116.8726216853 10.6063892155 0.3280077104 1
21.9945242107 116.8726216853 10.1589837098 0.0627924564 1
24.582108289 116.8726216853 10.5542161724 0.2862977918 1
27.1696923673 116.8726216853 10.4923779003 0.219092233 1
29.7572764456 116.8726216853 10.1916919414 -0.1568385617 1
32.3448605239 116.8726216853 10.4862716692 -0.1034933525 1
34.9324446023 116.8726216853 10.5514550701 -0.1229471964 1
37.5200286806 116.8726216853 10.5021061932 0.209096604 1
40.1076127589 116.8726216853 10.307559529 0.3634743024 1
42.6951968372 116.8726216853 10.3797512492 0.3298173703 1
45.2827809155 116.8726216853 10.4518223254 0.0498012919 1
47.8703649938 116.8726216853 10.7515705514 0.0160045224 1
50.4579490721 116.8726216853 10.0955386791 -0.1790685884 1
53.0455331504 116.8726216853 10.6067401799 0.079966403 1
55.6331172287 116.8726216853 10.61341947 -0.1278922291 1
58.2207013071 116.8726216853 10.3535523093 0.1176731346 1
60.8082853854 116.8726216853 10.4848431346 0.2273344112 1
63.3958694637 116.8726216853 10.4238000161 0.0254051572 1
65.983453542 116.8726216853 10.2682186196 -0.2312649377 1
68.5710376203 116.8726216853 10.4922024182 0.4582634651 1
71.1586216986 116.8726216853 0 -0 0
73.7462057769 116.8726216853 0 -0 0
76.3337898552 116.8726216853 0 -0 0
78.9213739336 116.8726216853 0 -0 0
81.5089580119 116.8726216853 0 -0 0
84.0965420902 116.8726216853 10.3726250279 -0.0504264471 1
86.6841261685 116.8726216853 10.213021251 -0.0006416067 1
89.2717102468 116.8726216853 10.2499437966 -0.1345701483 1
91.8592943251 116.8726216853 10.4854161936 0.0675798294 1
94.4468784034 116.8726216853 10.3045160101 -0.1807781686 1
97.0344624817 116.8726216853 10.3004936297 -0.1863483566 1
99.62204656 116.8726216853 10.3445944929 0.1667724978 1
102.2096306384 116.8726216853 10.2878150428 0.0257328153 1
104.7972147167 116.8726216853 10.2655534842 -0.2054484942 1
107.384798795 116.8726216853 10.0883247167 0.2506858786 1
109.9723828733 116.8726216853 9.8769866022 -0.1407613787 1
112.5599669516 116.8726216853 10.3457460946 -0.027035222 1
115.1475510299 116.8726216853 10.2806175318 0.0142510717 1
117.7351351082 116.8726216853 10.400079762 -0.1635411581 1
120.3227191865 116.8726216853 10.251468298 0.0506279774 1
122.9103032649 116.8726216853 10.150697661 0.1555388969 1
125.4978873432 116.8726216853 10.1328039634 -0.0289161716 1
128.0854714215 116.8726216853 10.1737050189 -0.1594447461 1
130.6730554998 116.8726216853 10.2561240594 -0.0426997478 1
133.2606395781 116.8726216853 10.1446133651 -0.2186521566 1
135.8482236564 116.8726216853 0 -0 0
-37.5199095905 114.285037607 10.2155767101 0.6310393724 1
-34.9323255122 114.285037607 10.2395793809 0.4847475634 1
-32.3447414339 114.285037607 10.3650765526 0.3164025809 1
-29.7571573555 114.285037607 10.0099554757 0.3423314427 1
-27.1695732772 114.285037607 9.7128422241 0.522455666 1
-24.5819891989 114.285037607 0 -0 0
-21.9944051206 114.285037607 0 -0 0
-19.4068210423 114.285037607 0 -0 0
-16.819236964 114.285037607 0 -0 0
-14.2316528857 114.285037607 0 -0 0
-11.6440688074 114.285037607 0 -0 0
-9.0564847291 114.285037607 0 -0 0
-6.4689006507 114.285037607 0 -0 0
-3.8813165724 114.285037607 0 -0 0
-1.2937324941 114.285037607 10.403449568 0.2072992827 1
1.2938515842 114.285037607 10.2826629959 0.3026450528 1
3.8814356625 114.285037607 10.3094761233 0.4051074476 1
6.4690197408 114.285037607 10.014912847 0.3340632163 1
9.0566038191 114.285037607 10.3399140543 0.3071979926 1
11.6441878974 114.285037607 10.5989860614 0.3798681759 1
14.2317719758 114.285037607 10.3630941524 0.2833269335 1
16.8193560541 114.285037607 10.6320644507 0.3181368383 1
19.4069401324 114.285037607 10.0723476134 0.5325143589 1
21.9945242107 114.285037607 10.5365445694 0.304055765 1
24.582108289 114.285037607 10.6154539664 0.1222315582 1
27.1696923673 114.285037607 10.584788457 0.4486818643 1
29.7572764456 114.285037607 10.4893590586 0.017582491 1
32.3448605239 114.285037607 10.6851697429 0.0326150067 1
34.9324446023 114.285037607 10.3372681122 0.0704972205 1
37.5200286806 114.285037607 10.404173432 0.1595461968 1
40.1076127589 114.285037607 10.5099233756 0.2523159435 1
42.6951968372 114.285037607 10.4511176548 -0.3070211395 1
45.2827809155 114.285037607 10.4424477387 0.2278416644 1
47.8703649938 114.285037607 10.5647396189 0.2745898407 1
50.4579490721 114.285037607 10.4312415569 0.2311209875 1
53.0455331504 114.285037607 10.6368655333 -0.0128389886 1
55.6331172287 114.285037607 10.2533794085 0.2932937724 1
58.2207013071 114.285037607 10.5744542022 -0.0806148644 1
60.8082853854 114.285037607 10.508344036 -0.3929429686 1
63.3958694637 114.285037607 10.3892793827 -0.1590663627 1
65.983453542 114.285037607 10.4875960112 0.2096244215 1
68.5710376203 114.285037607 10.028493522 -0.0669779804 1
71.1586216986 114.285037607 0 -0 0
73.7462057769 114.285037607 0 -0 0
76.3337898552 114.285037607 0 -0 0
78.9213739336 114.285037607 0 -0 0
81.5089580119 114.285037607 0 -0 0
84.0965420902 114.285037607 10.3114832006 -0.0825986355 1
86.6841261685 114.285037607 10.3172549189 0.0726976024 1
89.2717102468 114.285037607 10.3993175113 -0.1358286845 1
91.8592943251 114.285037607 10.2644512368 -0.0467646277 1
94.4468784034 114.285037607 10.2175316912 0.0592416843 1
97.0344624817 114.285037607 10.3816870369 0.0715213235 1
99.62204656 114.285037607 9.8420245214 -0.023363806 1
102.2096306384 114.285037607 10.208233878 -0.1721726874 1
104.7972147167 114.285037607 10.1374597247 -0.4077396802 1
107.384798795 114.285037607 10.1568779238 -0.2177130528 1
109.9723828733 114.285037607 10.1453975511 0.0652779968 1
112.5599669516 114.285037607 10.1861450597 -0.0112555362 1
115.1475510299 114.285037607 10.177976913 -0.1468840613 1
117.7351351082 114.285037607 10.353321989 0.0345014401 1
120.3227191865 114.285037607 10.1706011779 0.1740125083 1
122.9103032649 114.285037607 10.3167010533 0.1255218489 1
125.4978873432 114.285037607 10.2998273458 -0.1541062495 1
128.0854714215 114.285037607 10.1469796325 -0.061601097 1
130.6730554998 114.285037607 10.3418580678 -0.0000836282 1
133.2606395781 114.285037607 10.1551614888 -0.1229691317 1
135.8482236564 114.285037607 0 -0 0
-37.5199095905 111.6974535286 9.9862955435 0.169744727 1
-34.9323255122 111.6974535286 9.6964785116 0.5711656781 1
-32.3447414339 111.6974535286 9.9056669696 0.4881173695 1
-29.7571573555 111.6974535286 9.9504478262 0.2641651029 1
-27.1695732772 111.6974535286 10.0110549812 0.4621240728 1
-24.5819891989 111.6974535286 0 -0 0
-21.9944051206 111.6974535286 0 -0 0
-19.4068210423 111.6974535286 0 -0 0
-16.819236964 111.6974535286 0 -0 0
-14.2316528857 111.6974535286 0 -0 0
-11.6440688074 111.6974535286 0 -0 0
-9.0564847291 111.6974535286 0 -0 0
-6.4689006507 111.6974535286 0 -0 0
-3.8813165724 111.6974535286 0 -0 0
-1.2937324941 111.6974535286 10.4108993346 0.4246010491 1
1.2938515842 111.6974535286 10.2245975905 0.2783503688 1
3.8814356625 111.6974535286 10.3606456277 0.3133851101 1
6.4690197408 111.6974535286 10.4468183416 0.2940546522 1
9.0566038191 111.6974535286 10.2483342961 0.3659379076 1
11.6441878974 111.6974535286 10.4404763062 0.2122552831 1
14.2317719758 111.6974535286 10.4902556628 -0.0219037395 1
16.8193560541 111.6974535286 10.5036361784 0.1730734045 1
19.4069401324 111.6974535286 10.4626281885 0.0447726309 1
21.9945242107 111.6974535286 10.6687923208 -0.1579970182 1
24.582108289 111.6974535286 10.5353024846 0.2304999451 1
27.1696923673 111.6974535286 10.6152044527 -0.3407699255 1
29.7572764456 111.6974535286 10.4360344138 0.1605757836 1
32.3448605239 111.6974535286 10.4597985384 0.232759278 1
34.9324446023 111.6974535286 10.6219961612 0.2843729717 1
37.5200286806 111.6974535286 10.4408327544 -0.0635464813 1
40.1076127589 111.6974535286 10.4671194353 0.1007199117 1
42.6951968372 111.6974535286 10.5548742306 0.2326907303 1
45.2827809155 111.6974535286 10.5415211341 0.4053542194 1
47.8703649938 111.6974535286 10.4971214028 0.1115641615 1
50.4579490721 111.6974535286 10.398843161 -0.0891586527 1
53.0455331504 111.6974535286 10.4196213469 0.3883886579 1
55.6331172287 111.6974535286 10.5108473989 0.0007128963 1
58.2207013071 111.6974535286 10.1103120844 0.1399319512 1
60.8082853854 111.6974535286 10.5611038476 0.0606948961 1
63.3958694637 111.6974535286 10.4971488219 -0.421986639 1
65.983453542 111.6974535286 10.281815746 -0.0735846099 1
68.5710376203 111.6974535286 10.3162129935 -0.0975612326 1
71.1586216986 111.6974535286 0 -0 0
73.7462057769 111.6974535286 0 -0 0
76.3337898552 111.6974535286 0 -0 0
78.9213739336 111.6974535286 0 -0 0
81.5089580119 111.6974535286 0 -0 0
84.0965420902 111.6974535286 10.2148226852 -0.2370805265 1
86.6841261685 111.6974535286 10.3214116529 -0.0667764501 1
89.2717102468 111.6974535286 10.3274685297 -0.0412575037 1
91.8592943251 111.6974535286 10.3777715909 -0.2115560963 1
94.4468784034 111.6974535286 10.0700526356 -0.075809669 1
97.0344624817 111.6974535286 10.2909106579 0.1380674532 1
99.62204656 111.6974535286 10.0100459587 -0.0494599242 1
102.2096306384 111.6974535286 10.3594748326 0.0031723886 1
104.7972147167 111.6974535286 10.0709656913 -0.0181089375 1
107.384798795 111.6974535286 10.216363638 0.0114611793 1
109.9723828733 111.6974535286 10.1280604609 -0.126149746 1
112.5599669516 111.6974535286 10.1519726487 -0.0403718671 1
115.1475510299 111.6974535286 10.114389303 0.000061693 1
117.7351351082 111.6974535286 10.3112693317 -0.0320721087 1
120.3227191865 111.6974535286 10.1280028808 0.12940165 1
122.9103032649 111.6974535286 10.4772836917 0.1913413727 1
125.4978873432 111.6974535286 10.207962429 -0.2417774165 1
128.0854714215 111.6974535286 10.0519807139 0.0358682817 1
130.6730554998 111.6974535286 10.1395709946 -0.146893658 1
133.2606395781 111.6974535286 10.1604286958 0.1076281512 1
135.8482236564 111.6974535286 0 -0 0
-37.5199095905 109.1098694503 10.2290614182 0.4582524974 1
-34.9323255122 109.1098694503 9.945846903 0.5945144036 1
-32.3447414339 109.1098694503 10.1112361077 0.5530978692 1
-29.7571573555 109.1098694503 10.0145043026 0.2542750374 1
-27.1695732772 109.1098694503 10.3467989876 0.3410249231 1
-24.5819891989 109.1098694503 0 -0 0
-21.9944051206 109.1098694503 0 -0 0
-19.4068210423 109.1098694503 0 -0 0
-16.819236964 109.1098694503 0 -0 0
-14.2316528857 109.1098694503 0 -0 0
-11.6440688074 109.1098694503 0 -0 0
-9.0564847291 109.1098694503 0 -0 0
-6.4689006507 109.1098694503 0 -0 0
-3.8813165724 109.1098694503 0 -0 0
-1.2937324941 109.1098694503 10.2478051077 0.3954134286 1
1.2938515842 109.1098694503 10.5579808134 0.389891224 1
3.8814356625 109.1098694503 10.4523515138 0.3483321104 1
6.4690197408 109.1098694503 10.4348937796 0.2891013937 1
9.0566038191 109.1098694503 10.3255491934 0.251397404 1
11.6441878974 109.1098694503 10.5880622962 0.5416229803 1
14.2317719758 109.1098694503 10.3702971472 0.5310926791 1
16.8193560541 109.1098694503 10.1292120627 0.1983620305 1
19.4069401324 109.1098694503 10.6289414165 0.349305488 1
21.9945242107 109.1098694503 10.4890108362 0.0810563118 1
24.582108289 109.1098694503 10.7037379501 0.1824315397 1
27.1696923673 109.1098694503 10.6852821611 0.0157508958 1
29.7572764456 109.1098694503 10.5584880665 -0.2438434449 1
32.3448605239 109.1098694503 10.5518142602 0.2334502391 1
34.9324446023 109.1098694503 10.3397330883 0.2365266609 1
37.5200286806 109.1098694503 10.3233803435 0.1075952483 1
40.1076127589 109.1098694503 10.6727050249 0.1149435642 1
42.6951968372 109.1098694503 10.3443394953 0.1389530898 1
45.2827809155 109.1098694503 10.621519069 0.2057062336 1
47.8703649938 109.1098694503 10.3604290169 0.0689137681 1
50.4579490721 109.1098694503 10.2552110037 -0.117238542 1
53.0455331504 109.1098694503 10.6682439391 0.1422310419 1
55.6331172287 109.1098694503 10.5848707142 -0.31489316 1
58.2207013071 109.1098694503 10.6737332407 -0.0933729667 1
60.8082853854 109.1098694503 10.2717200373 0.2568483189 1
63.3958694637 109.1098694503 10.301206526 0.0262962776 1
65.983453542 109.1098694503 10.4943767519 -0.2868763346 1
68.5710376203 109.1098694503 10.5694118317 -0.1187219147 1
71.1586216986 109.1098694503 10.2284993269 0.0068602561 1
73.7462057769 109.1098694503 0 -0 0
76.3337898552 109.1098694503 0 -0 0
78.9213739336 109.1098694503 0 -0 0
81.5089580119 109.1098694503 0 -0 0
84.0965420902 109.1098694503 10.2625209329 -0.2998263705 1
86.6841261685 109.1098694503 10.3827481556 0.0405706555 1
89.2717102468 109.1098694503 10.4215379412 -0.1883403534 1
91.8592943251 109.1098694503 10.2761454784 -0.3643763905 1
94.4468784034 109.1098694503 10.2194126407 -0.1690263469 1
97.0344624817 109.1098694503 10.3772122415 -0.1632943863 1
99.62204656 109.1098694503 10.367292015 0.0204491568 1
102.2096306384 109.1098694503 10.1645634945 -0.0098516788 1
104.7972147167 109.1098694503 10.1855994198 0.0663733895 1
107.384798795 109.1098694503 10.0347094295 0.001625952 1
109.9723828733 109.1098694503 10.355638902 -0.0129596326 1
112.5599669516 109.1098694503 10.2259438678 -0.0292685069 1
115.1475510299 109.1098694503 10.196613668 -0.0201077891 1
117.7351351082 109.1098694503 10.2099585387 -0.0857819918 1
120.3227191865 109.1098694503 10.2521784524 -0.0416619352 1
122.9103032649 109.1098694503 10.1964272182 -0.0378849557 1
125.4978873432 109.1098694503 9.9176491116 0.1727937298 1
128.0854714215 109.1098694503 10.2540758534 -0.105618332 1
130.6730554998 109.1098694503 10.1266237006 -0.3628532601 1
133.2606395781 109.1098694503 10.0517586192 0.2492107316 1
135.8482236564 109.1098694503 0 -0 0
-37.5199095905 106.522285372 9.9868137643 0.6573123438 1
-34.9323255122 106.522285372 9.582450745 0.2062875183 1
-32.3447414339 106.522285372 10.1273749837 0.3955162502 1
-29.7571573555 106.522285372 10.5040529486 0.622139136 1
-27.1695732772 106.522285372 10.1872527909 0.6022068291 1
-24.5819891989 106.522285372 10.3833239565 0.4508219242 1
-21.9944051206 106.522285372 0 -0 0
-19.4068210423 106.522285372 0 -0 0
-16.819236964 106.522285372 0 -0 0
-14.2316528857 106.522285372 0 -0 0
-11.6440688074 106.522285372 0 -0 0
-9.0564847291 106.522285372 0 -0 0
-6.4689006507 106.522285372 0 -0 0
-3.8813165724 106.522285372 0 -0 0
-1.2937324941 106.522285372 10.4955749661 0.6374458426 1
1.2938515842 106.522285372 10.4982784884 0.444324971 1
3.8814356625 106.522285372 10.5038774664 0.3072665403 1
6.4690197408 106.522285372 10.6217329379 0.4491000054 1
9.0566038191 106.522285372 10.4005815313 0.265759523 1
11.6441878974 106.522285372 10.5066824392 0.4410195998 1
14.2317719758 106.522285372 10.3577529138 0.451129018 1
16.8193560541 106.522285372 10.4906093691 0.1145254231 1
19.4069401324 106.522285372 10.8825542829 0.2547041462 1
21.9945242107 106.522285372 10.3014834588 0.2513562754 1
24.582108289 106.522285372 10.4221576127 0.3307427646 1
27.1696923673 106.522285372 10.5240359808 0.2691416676 1
29.7572764456 106.522285372 10.5935570817 0.3326182303 1
32.3448605239 106.522285372 10.5797543122 0.1643226021 1
34.9324446023 106.522285372 10.4569414693 0.2122539121 1
37.5200286806 106.522285372 10.3817062302 -0.3014893382 1
40.1076127589 106.522285372 10.475287582 0.34400812 1
42.6951968372 106.522285372 10.3035618257 -0.2003677369 1
45.2827809155 106.522285372 10.4576817847 0.0815361458 1
47.8703649938 106.522285372 10.5236905003 -0.1482454191 1
50.4579490721 106.522285372 10.5023419974 0.0989349289 1
53.0455331504 106.522285372 10.6863789247 0.0137630119 1
55.6331172287 106.522285372 10.4077653327 -0.2130504367 1
58.2207013071 106.522285372 10.3639578537 0.1356545733 1
60.8082853854 106.522285372 10.4341041099 -0.0862686806 1
63.3958694637 106.522285372 10.6252974195 0.065575494 1
65.983453542 106.522285372 10.406912599 -0.0737244473 1
68.5710376203 106.522285372 10.5652825169 0.0644129246 1
71.1586216986 106.522285372 10.4421899993 -0.0342779745 1
73.7462057769 106.522285372 0 -0 0
76.3337898552 106.522285372 0 -0 0
78.9213739336 106.522285372 0 -0 0
81.5089580119 106.522285372 0 -0 0
84.0965420902 106.522285372 10.2218885845 -0.3174664416 1
86.6841261685 106.522285372 10.2230922825 -0.1079489545 1
89.2717102468 106.522285372 10.2968194717 -0.3262665983 1
91.8592943251 106.522285372 10.1554027768 -0.0650463055 1
94.4468784034 106.522285372 10.1615775557 0.0896535672 1
97.0344624817 106.522285372 10.3639139832 -0.009997 1
99.62204656 106.522285372 10.2062268007 -0.2357877165 1
102.2096306384 106.522285372 10.2929095096 -0.2212460025 1
104.7972147167 106.522285372 10.3923064501 -0.1187315114 1
107.384798795 106.522285372 10.3816267149 -0.1767393367 1
109.9723828733 106.522285372 10.3453814207 -0.1125238296 1
112.5599669516 106.522285372 10.2509884639 0.0433811121 1
115.1475510299 106.522285372 10.2223876119 -0.069156427 1
117.7351351082 106.522285372 10.2702585999 0.0234008218 1
120.3227191865 106.522285372 10.0699566688 0.0525555394 1
122.9103032649 106.522285372 9.9570284076 0.0700461765 1
125.4978873432 106.522285372 9.9894926094 -0.1518153845 1
128.0854714215 106.522285372 10.1124809344 -0.1631682585 1
130.6730554998 106.522285372 10.0499215402 -0.1572950895 1
133.2606395781 106.522285372 10.1383700385 -0.1201929489 1
135.8482236564 106.522285372 0 -0 0
-37.5199095905 103.9347012937 0 -0 0
-34.9323255122 103.9347012937 9.4206205381 0.5921070075 1
-32.3447414339 103.9347012937 9.6897608348 0.2632465634 1
-29.7571573555 103.9347012937 10.0914642024 0.196271325 1
-27.1695732772 103.9347012937 9.7287370702 0.8057071969 1
-24.5819891989 103.9347012937 9.8587995202 0.5261243401 1
-21.9944051206 103.9347012937 0 -0 0
-19.4068210423 103.9347012937 0 -0 0
-16.819236964 103.9347012937 0 -0 0
-14.2316528857 103.9347012937 0 -0 0
-11.6440688074 103.9347012937 0 -0 0
-9.0564847291 103.9347012937 0 -0 0
-6.4689006507 103.9347012937 0 -0 0
-3.8813165724 103.9347012937 0 -0 0
-1.2937324941 103.9347012937 10.3561571228 0.3657788769 1
1.2938515842 103.9347012937 10.4293578655 0.2863471462 1
3.8814356625 103.9347012937 10.2243233996 0.2953707684 1
6.4690197408 103.9347012937 10.5349570041 0.3646382428 1
9.0566038191 103.9347012937 10.5822494493 0.343315788 1
11.6441878974 103.9347012937 10.299218642 0.3930183711 1
14.2317719758 103.9347012937 10.4746021047 0.3642557465 1
16.8193560541 103.9347012937 10.4494094455 0.2443794881 1
19.4069401324 103.9347012937 10.5028136057 0.2109076348 1
21.9945242107 103.9347012937 10.5067071164 -0.0722259941 1
24.582108289 103.9347012937 10.4123169015 0.2549783371 1
27.1696923673 103.9347012937 10.7707035919 0.1196431961 1
29.7572764456 103.9347012937 10.6432541811 0.258020485 1
32.3448605239 103.9347012937 10.5434075674 0.2202301252 1
34.9324446023 103.9347012937 10.6775390103 -0.0119012557 1
37.5200286806 103.9347012937 10.8517324846 0.0232555006 1
40.1076127589 103.9347012937 10.5282502949 0.3255276538 1
42.6951968372 103.9347012937 10.4608569153 0.2368296419 1
45.2827809155 103.9347012937 10.548778967 -0.0050218062 1
47.8703649938 103.9347012937 10.3860768331 0.2162570992 1
50.4579490721 103.9347012937 10.5936448228 0.1448742421 1
53.0455331504 103.9347012937 10.6186482903 -0.147797117 1
55.6331172287 103.9347012937 10.4456694817 0.0223218806 1
58.2207013071 103.9347012937 10.5149959071 -0.2293908429 1
60.8082853854 103.9347012937 10.4203013403 0.1284419819 1
63.3958694637 103.9347012937 10.6035897265 -0.3261089385 1
65.983453542 103.9347012937 10.3019523252 -0.2257180559 1
68.5710376203 103.9347012937 10.5031426348 -0.2271726386 1
71.1586216986 103.9347012937 10.6656089646 -0.1103248186 1
73.7462057769 103.9347012937 0 -0 0
76.3337898552 103.9347012937 0 -0 0
78.9213739336 103.9347012937 0 -0 0
81.5089580119 103.9347012937 0 -0 0
84.0965420902 103.9347012937 10.3177512045 -0.2133918043 1
86.6841261685 103.9347012937 10.165089941 -0.1358533617 1
89.2717102468 103.9347012937 10.2396561543 -0.1753615275 1
91.8592943251 103.9347012937 10.2552987448 -0.1367938365 1
94.4468784034 103.9347012937 10.1277780443 -0.0837077377 1
97.0344624817 103.9347012937 10.3744895259 -0.2095640995 1
99.62204656 103.9347012937 10.1431464438 -0.1473255087 1
102.2096306384 103.9347012937 10.2725289005 -0.3016812718 1
104.7972147167 103.9347012937 10.0600720871 -0.1047793078 1
107.384798795 103.9347012937 10.1964381858 -0.1356367509 1
109.9723828733 103.9347012937 10.3663021859 -0.1277208598 1
112.5599669516 103.9347012937 10.1989168715 -0.0280757765 1
115.1475510299 103.9347012937 10.2468207624 -0.0465205978 1
117.7351351082 103.9347012937 10.2523566765 -0.0207288315 1
120.3227191865 103.9347012937 10.3753175824 0.1071894458 1
122.9103032649 103.9347012937 10.0028621573 -0.1609377156 1
125.4978873432 103.9347012937 9.9626081923 -0.0109018299 1
128.0854714215 103.9347012937 10.136938762 -0.2871176226 1
130.6730554998 103.9347012937 9.9499076701 -0.0509295874 1
133.2606395781 103.9347012937 10.2235995356 0.166011618 1
135.8482236564 103.9347012937 0 -0 0
-37.5199095905 101.3471172154 10.3244551718 0.2548686607 1
-34.9323255122 101.3471172154 10.0516078142 0.3525491663 1
-32.3447414339 101.3471172154 10.0863642518 0.6631183359 1
-29.7571573555 101.3471172154 9.7568251853 0.3919599943 1
-27.1695732772 101.3471172154 10.1703324709 0.4388493789 1
-24.5819891989 101.3471172154 9.9862736083 0.4429457908 1
-21.9944051206 101.3471172154 0 -0 0
-19.4068210423 101.3471172154 0 -0 0
-16.819236964 101.3471172154 0 -0 0
-14.2316528857 101.3471172154 0 -0 0
-11.6440688074 101.3471172154 0 -0 0
-9.0564847291 101.3471172154 0 -0 0
-6.4689006507 101.3471172154 0 -0 0
-3.8813165724 101.3471172154 0 -0 0
-1.2937324941 101.3471172154 10.576507892 0.5918506391 1
1.2938515842 101.3471172154 10.4764666028 0.3025943275 1
3.8814356625 101.3471172154 10.7241706555 0.4478373564 1
6.4690197408 101.3471172154 10.6423877379 0.4496744353 1
9.0566038191 101.3471172154 10.6261035407 0.4307292156 1
11.6441878974 101.3471172154 10.6293143161 0.2362716634 1
14.2317719758 101.3471172154 10.5518965175 0.4081701599 1
16.8193560541 101.3471172154 10.7320646113 0.4544083411 1
19.4069401324 101.3471172154 10.5966115683 0.4218838174 1
21.9945242107 101.3471172154 10.6261227341 0.0525829585 1
24.582108289 101.3471172154 10.4741853346 0.2128968898 1
27.1696923673 101.3471172154 10.4125910924 0.1905722673 1
29.7572764456 101.3471172154 10.6691515109 0.4643052614 1
32.3448605239 101.3471172154 10.7725434128 -0.1372476224 1
34.9324446023 101.3471172154 10.5698395695 0.0478284884 1
37.5200286806 101.3471172154 10.7363063444 -0.0471635755 1
40.1076127589 101.3471172154 10.5946730387 0.0797168893 1
42.6951968372 101.3471172154 10.1381013314 0.1381277752 1
45.2827809155 101.3471172154 10.4780898129 -0.0933743376 1
47.8703649938 101.3471172154 10.5956519002 -0.0832717742 1
50.4579490721 101.3471172154 10.5617207772 0.1948565 1
53.0455331504 101.3471172154 10.4429495081 0.0475899423 1
55.6331172287 101.3471172154 10.6123473836 -0.1396413089 1
58.2207013071 101.3471172154 10.3520387756 -0.2469582534 1
60.8082853854 101.3471172154 10.357506142 -0.2383020469 1
63.3958694637 101.3471172154 10.4640128525 -0.127324654 1
65.983453542 101.3471172154 10.4410493652 -0.030226804 1
68.5710376203 101.3471172154 10.6937025635 -0.1728376003 1
71.1586216986 101.3471172154 10.4498399252 -0.3609750524 1
73.7462057769 101.3471172154 0 -0 0
76.3337898552 101.3471172154 0 -0 0
78.9213739336 101.3471172154 0 -0 0
81.5089580119 101.3471172154 0 -0 0
84.0965420902 101.3471172154 10.1440512738 -0.2457394749 1
86.6841261685 101.3471172154 10.231567523 -0.282949921 1
89.2717102468 101.3471172154 10.323514697 -0.0731966298 1
91.8592943251 101.3471172154 10.1209753682 -0.1822012193 1
94.4468784034 101.3471172154 10.3436074057 -0.3026532786 1
97.0344624817 101.3471172154 10.425157261 0.0613460994 1
99.62204656 101.3471172154 10.1652297784 -0.0867622242 1
102.2096306384 101.3471172154 10.176951439 0.0104754631 1
104.7972147167 101.3471172154 10.1266319264 -0.0522182846 1
107.384798795 101.3471172154 10.0875844013 -0.1086933828 1
109.9723828733 101.3471172154 10.255441324 -0.1508913612 1
112.5599669516 101.3471172154 10.1299030237 -0.2170303175 1
115.1475510299 101.3471172154 10.180806563 -0.0989294451 1
117.7351351082 101.3471172154 10.3043843984 -0.10399238 1
120.3227191865 101.3471172154 10.3211758487 0.0312536489 1
122.9103032649 101.3471172154 10.2311397852 -0.2143802625 1
125.4978873432 101.3471172154 10.2961230268 -0.2116479502 1
128.0854714215 101.3471172154 10.0582185567 -0.0786845605 1
130.6730554998 101.3471172154 10.349047353 -0.0220367221 1
133.2606395781 101.3471172154 10.1597953149 0.1526612635 1
135.8482236564 101.3471172154 0 -0 0
-37.5199095905 98.7595331371 10.009766284 0.3036513334 1
-34.9323255122 98.7595331371 9.9875979503 0.5794297916 1
-32.3447414339 98.7595331371 9.7315913974 0.594922948 1
-29.7571573555 98.7595331371 10.0502094407 0.5587256373 1
-27.1695732772 98.7595331371 10.0085214573 0.549309922 1
-24.5819891989 98.7595331371 10.186526185 0.4722677649 1
-21.9944051206 98.7595331371 0 -0 0
-19.4068210423 98.7595331371 0 -0 0
-16.819236964 98.7595331371 0 -0 0
-14.2316528857 98.7595331371 0 -0 0
-11.6440688074 98.7595331371 0 -0 0
-9.0564847291 98.7595331371 0 -0 0
-6.4689006507 98.7595331371 0 -0 0
-3.8813165724 98.7595331371 0 -0 0
-1.2937324941 98.7595331371 10.5194597348 0.6230165469 1
1.2938515842 98.7595331371 10.4614190066 0.4011316797 1
3.8814356625 98.7595331371 10.3653013891 0.1740563788 1