TITLE = "B00018"
VARIABLES = "x", "y", "Vx", "Vy", "isValid"
ZONE T="Frame 0", I=68, J=52, F=POINT
-37.5199095905 119.4602057636 9.5151094617 0.5843460343 1
-34.9323255122 119.4602057636 9.2541236022 0.0971403495 1
-32.3447414339 119.4602057636 9.6102345082 0.4659997611 1
-29.7571573555 119.4602057636 10.4592117699 0.7476486463 1
-27.1695732772 119.4602057636 10.4552606792 0.2360070692 1
-24.5819891989 119.4602057636 0 -0 0
-21.9944051206 119.4602057636 0 -0 0
-19.4068210423 119.4602057636 0 -0 0
-16.819236964 119.4602057636 0 -0 0
-14.2316528857 119.4602057636 0 -0 0
-11.6440688074 119.4602057636 0 -0 0
-9.0564847291 119.4602057636 0 -0 0
-6.4689006507 119.4602057636 0 -0 0
-3.8813165724 119.4602057636 0 -0 0
-1.2937324941 119.4602057636 10.4865239248 0.532902339 1
1.2938515842 119.4602057636 10.1865974746 0.4796805157 1
3.8814356625 119.4602057636 10.7139268837 0.4670718475 1
6.4690197408 119.4602057636 10.4568592121 0.3007449099 1
9.0566038191 119.4602057636 10.5292291563 0.3892400206 1
11.6441878974 119.4602057636 10.1668612142 0.3978619533 1
14.2317719758 119.4602057636 10.1683391031 0.1275618291 1
16.8193560541 119.4602057636 10.7307101083 0.0555839778 1
19.4069401324 119.4602057636 10.4024103846 0.4033992384 1
21.9945242107 119.4602057636 10.2935511162 0.2424162813 1
24.582108289 119.4602057636 10.5310305905 0.3489586366 1
27.1696923673 119.4602057636 10.2076690448 0.194132636 1
29.7572764456 119.4602057636 10.627329174 0.4807416345 1
32.3448605239 119.4602057636 10.5413045233 0.0520537701 1
34.9324446023 119.4602057636 10.2469057615 0.1533467407 1
37.5200286806 119.4602057636 10.2988155814 0.3005721697 1
40.1076127589 119.4602057636 10.4340547555 0.1047710821 1
42.6951968372 119.4602057636 10.4799680205 0.3167960448 1
45.2827809155 119.4602057636 10.5137099518 0.110012241 1
47.8703649938 119.4602057636 10.2050258446 -0.0454375438 1
50.4579490721 119.4602057636 10.3558143842 0.1986567857 1
53.0455331504 119.4602057636 10.3866526339 0.2790522975 1
55.6331172287 119.4602057636 10.5187139356 0.0826616994 1
58.2207013071 119.4602057636 10.2066271194 0.286562386 1
60.8082853854 119.4602057636 10.8764480517 0.0235269496 1
63.3958694637 119.4602057636 10.4404954996 -0.0682063556 1
65.983453542 119.4602057636 10.2212305263 0.1672427351 1
68.5710376203 119.4602057636 10.4940203038 0.1957051208 1
71.1586216986 119.4602057636 0 -0 0
73.7462057769 119.4602057636 0 -0 0
76.3337898552 119.4602057636 0 -0 0
78.9213739336 119.4602057636 0 -0 0
81.5089580119 119.4602057636 10.4147763938 -0.0773684443 1
84.0965420902 119.4602057636 10.3893259951 0.1698804515 1
86.6841261685 119.4602057636 10.297411724 -0.0595775682 1
89.2717102468 119.4602057636 10.5088677406 0.0296907608 1
91.8592943251 119.4602057636 10.5331281508 -0.0260056352 1
94.4468784034 119.4602057636 10.2739601769 0.2210335045 1
97.0344624817 119.4602057636 10.153949565 0.1869104479 1
99.62204656 119.4602057636 10.3921254842 -0.0558636525 1
102.2096306384 119.4602057636 10.3285241646 -0.0580640344 1
104.7972147167 119.4602057636 10.2992844478 0.1421803166 1
107.384798795 119.4602057636 10.276759666 0.0615202106 1
109.9723828733 119.4602057636 10.2729593802 0.0595199881 1
112.5599669516 119.4602057636 10.2132570552 0.0413315352 1
115.1475510299 119.4602057636 10.0784072321 -0.1195431165 1
117.7351351082 119.4602057636 10.2450906178 -0.0642950225 1
120.3227191865 119.4602057636 10.3693923172 -0.0922474131 1
122.9103032649 119.4602057636 10.2246304934 -0.0156521871 1
125.4978873432 119.4602057636 10.121372945 0.0264361149 1
128.0854714215 119.4602057636 10.2643909148 0.2262787763 1
130.6730554998 119.4602057636 10.2868800518 -0.1259043452 1
133.2606395781 119.4602057636 10.1458938366 -0.2703193175 1
135.8482236564 119.4602057636 0 -0 0
-37.5199095905 116.8726216853 10.271489717 0.4421245891 1
-34.9323255122 116.8726216853 9.7679216907 0.156497194 1
-32.3447414339 116.8726216853 9.801271529 0.3555748628 1
-29.7571573555 116.8726216853 10.3560529303 0.3271673153 1
-27.1695732772 116.8726216853 10.2335197621 0.251426194 1
-24.5819891989 116.8726216853 0 -0 0
-21.9944051206 116.8726216853 0 -0 0
-19.4068210423 116.8726216853 0 -0 0
-16.819236964 116.8726216853 0 -0 0
-14.2316528857 116.8726216853 0 -0 0
-11.6440688074 116.8726216853 0 -0 0
-9.0564847291 116.8726216853 0 -0 0
-6.4689006507 116.8726216853 0 -0 0
-3.8813165724 116.8726216853 0 -0 0
-1.2937324941 116.8726216853 10.5615096502 0.3818341246 1
1.2938515842 116.8726216853 10.2025499008 0.6299014802 1
3.8814356625 116.8726216853 10.1266346683 0.4241582309 1
6.4690197408 116.8726216853 10.1680429769 0.1247691949 1
9.0566038191 116.8726216853 10.1028486083 0.3277869868 1
11.6441878974 116.8726216853 10.4759099953 0.2476533274 1
14.2317719758 116.8726216853 10.2077156572 -0.0516973219 1
16.8193560541 116.8726216853 10.4059035765 0.3261390995 1
19.4069401324 116.8726216853 10.2160099317 0.3646807424 1
21.9945242107 116.8726216853 10.6355960294 0.3096122434 1
24.582108289 116.8726216853 9.9794023845 0.2201931094 1
27.1696923673 116.8726216853 10.7709695571 -0.1573787178 1
29.7572764456 116.8726216853 10.5024928024 0.1231295333 1
32.3448605239 116.8726216853 10.3277783654 0.2034139977 1
34.9324446023 116.8726216853 10.4877331066 0.2588074129 1
37.5200286806 116.8726216853 10.3439857891 -0.1057650241 1
40.1076127589 116.8726216853 10.5514084577 -0.2111626324 1
42.6951968372 116.8726216853 10.6588940296 0.4391413922 1
45.2827809155 116.8726216853 10.6202797262 -0.1729171157 1
47.8703649938 116.8726216853 10.3573196922 -0.0819446903 1
50.4579490721 116.8726216853 10.1370210193 0.281563886 1
53.0455331504 116.8726216853 10.5150151005 0.0200049675 1
55.6331172287 116.8726216853 10.491124848 -0.136627951 1
58.2207013071 116.8726216853 10.2657838045 0.0425009594 1
60.8082853854 116.8726216853 10.4010586234 0.2710431815 1
63.3958694637 116.8726216853 10.3461436714 -0.391728303 1
65.983453542 116.8726216853 10.3761648323 -0.0921473334 1
68.5710376203 116.8726216853 10.1682321686 0.1806465569 1
71.1586216986 116.8726216853 0 -0 0
73.7462057769 116.8726216853 0 -0 0
76.3337898552 116.8726216853 0 -0 0
78.9213739336 116.8726216853 0 -0 0
81.5089580119 116.8726216853 0 -0 0
84.0965420902 116.8726216853 10.3403911465 -0.2985788019 1
86.6841261685 116.8726216853 10.4600069235 -0.138733737 1
89.2717102468 116.8726216853 10.3085658095 0.2307645393 1
91.8592943251 116.8726216853 10.3033890855 0.0808424429 1
94.4468784034 116.8726216853 10.2366948927 0.0009898291 1
97.0344624817 116.8726216853 10.1067037323 -0.0463080999 1
99.62204656 116.8726216853 10.204408915 -0.3515250633 1
102.2096306384 116.8726216853 10.2338679846 -0.0297922115 1
104.7972147167 116.8726216853 10.2154615499 0.0160991183 1
107.384798795 116.8726216853 10.4114011039 -0.1695089229 1
109.9723828733 116.8726216853 10.1825367075 -0.0553509156 1
112.5599669516 116.8726216853 10.1942583682 -0.0524019925 1
115.1475510299 116.8726216853 10.1752925841 0.1008227332 1
117.7351351082 116.8726216853 10.2505634681 -0.063525917 1
120.3227191865 116.8726216853 10.2855337745 0.143762398 1
122.9103032649 116.8726216853 10.1764551535 -0.1193621505 1
125.4978873432 116.8726216853 10.1725890619 -0.1342232969 1
128.0854714215 116.8726216853 10.1355266789 0.0424653145 1
130.6730554998 116.8726216853 10.3019386157 -0.226047085 1
133.2606395781 116.8726216853 10.0231413157 0.0710867309 1
135.8482236564 116.8726216853 0 -0 0
-37.5199095905 114.285037607 10.1516737806 0.6888237322 1
-34.9323255122 114.285037607 9.9959360953 0.5559467126 1
-32.3447414339 114.285037607 10.0841542732 0.2493066984 1
-29.7571573555 114.285037607 10.3029558639 0.5357977948 1
-27.1695732772 114.285037607 10.2523045802 0.6523111019 1
-24.5819891989 114.285037607 0 -0 0
-21.9944051206 114.285037607 0 -0 0
-19.4068210423 114.285037607 0 -0 0
-16.819236964 114.285037607 0 -0 0
-14.2316528857 114.285037607 0 -0 0
-11.6440688074 114.285037607 0 -0 0
-9.0564847291 114.285037607 0 -0 0
-6.4689006507 114.285037607 0 -0 0
-3.8813165724 114.285037607 0 -0 0
-1.2937324941 114.285037607 10.2735050201 0.4527083576 1
1.2938515842 114.285037607 10.1003836322 0.3548222088 1
3.8814356625 114.285037607 10.5720769672 0.3868463341 1
6.4690197408 114.285037607 10.2195442523 0.8675358723 1
9.0566038191 114.285037607 10.5726500262 0.1679145028 1
11.6441878974 114.285037607 10.6627710888 0.0704972205 1
14.2317719758 114.285037607 10.6732506648 0.2630326945 1
16.8193560541 114.285037607 10.394990779 0.2864636773 1
19.4069401324 114.285037607 10.4569935656 0.0314949369 1
21.9945242107 114.285037607 10.3946261051 0.2454186716 1
24.582108289 114.285037607 10.2454607755 -0.0178580529 1
27.1696923673 114.285037607 10.1628662529 0.2898321124 1
29.7572764456 114.285037607 10.5604732086 0.2077900844 1
32.3448605239 114.285037607 9.9995115446 0.2327579071 1
34.9324446023 114.285037607 10.3699516666 0.2847143394 1
37.5200286806 114.285037607 10.4314609097 -0.1778799708 1
40.1076127589 114.285037607 10.5732450204 0.2298857575 1
42.6951968372 114.285037607 10.2571632428 0.2461178584 1
45.2827809155 114.285037607 10.1238598564 0.2535470606 1
47.8703649938 114.285037607 10.5217053582 -0.4077040354 1
50.4579490721 114.285037607 10.3768585352 -0.0579995996 1
53.0455331504 114.285037607 10.4430290234 -0.0493872636 1
55.6331172287 114.285037607 10.4613230398 0.1491118623 1
58.2207013071 114.285037607 10.6127093156 0.1373943145 1
60.8082853854 114.285037607 10.595687545 -0.0197074704 1
63.3958694637 114.285037607 10.4448359414 0.1889147833 1
65.983453542 114.285037607 10.5092406403 -0.1566521119 1
68.5710376203 114.285037607 10.5651097766 0.1676526505 1
71.1586216986 114.285037607 0 -0 0
73.7462057769 114.285037607 0 -0 0
76.3337898552 114.285037607 0 -0 0
78.9213739336 114.285037607 0 -0 0
81.5089580119 114.285037607 0 -0 0
84.0965420902 114.285037607 10.151391364 -0.1191263463 1
86.6841261685 114.285037607 10.4797678612 -0.1680392597 1
89.2717102468 114.285037607 10.3327549301 -0.1508790226 1
91.8592943251 114.285037607 10.3007486272 -0.2438626383 1
94.4468784034 114.285037607 10.0805760821 -0.0268364336 1
97.0344624817 114.285037607 9.965566712 -0.0948165817 1
99.62204656 114.285037607 10.0594524157 0.0634176116 1
102.2096306384 114.285037607 10.1548406854 0.1118822229 1
104.7972147167 114.285037607 10.3418580678 -0.1002249971 1
107.384798795 114.285037607 10.3348387809 0.1085028201 1
109.9723828733 114.285037607 10.372531803 -0.1961356005 1
112.5599669516 114.285037607 9.9898490575 -0.3236590429 1
115.1475510299 114.285037607 10.1612101399 -0.1019578835 1
117.7351351082 114.285037607 10.157623723 0.1994848422 1
120.3227191865 114.285037607 10.0096483819 -0.2245856475 1
122.9103032649 114.285037607 10.2578925906 -0.1555155906 1
125.4978873432 114.285037607 10.0001641189 0.1089319289 1
128.0854714215 114.285037607 10.0176465302 -0.0018494176 1
130.6730554998 114.285037607 10.0633239911 0.1086440285 1
133.2606395781 114.285037607 10.1014749119 -0.1200298053 1
135.8482236564 114.285037607 0 -0 0
-37.5199095905 111.6974535286 9.7547687536 0.8331221734 1
-34.9323255122 111.6974535286 9.9512841084 0.3514030484 1
-32.3447414339 111.6974535286 9.8014195921 0.5297080151 1
-29.7571573555 111.6974535286 10.1579911388 0.7465107541 1
-27.1695732772 111.6974535286 0 -0 0
-24.5819891989 111.6974535286 0 -0 0
-21.9944051206 111.6974535286 0 -0 0
-19.4068210423 111.6974535286 0 -0 0
-16.819236964 111.6974535286 0 -0 0
-14.2316528857 111.6974535286 0 -0 0
-11.6440688074 111.6974535286 0 -0 0
-9.0564847291 111.6974535286 0 -0 0
-6.4689006507 111.6974535286 0 -0 0
-3.8813165724 111.6974535286 0 -0 0
-1.2937324941 111.6974535286 10.3854078073 0.251969092 1
1.2938515842 111.6974535286 10.3499357315 0.4764272408 1
3.8814356625 111.6974535286 10.4045764926 0.2949252082 1
6.4690197408 111.6974535286 10.1753008099 0.3918996723 1
9.0566038191 111.6974535286 10.3589429023 0.2325344415 1
11.6441878974 111.6974535286 10.5658144472 0.4691707788 1
14.2317719758 111.6974535286 10.7040998821 0.361349323 1
16.8193560541 111.6974535286 10.6284643243 0.3461536637 1
19.4069401324 111.6974535286 10.3628994769 0.3413320169 1
21.9945242107 111.6974535286 10.1762275751 0.4482047722 1
24.582108289 111.6974535286 10.6064906662 0.2212432605 1
27.1696923673 111.6974535286 10.6599770836 0.2944001327 1
29.7572764456 111.6974535286 10.5782435204 0.2469568825 1
32.3448605239 111.6974535286 10.5408356568 0.0014436151 1
34.9324446023 111.6974535286 10.6572763033 0.1534893199 1
37.5200286806 111.6974535286 10.4276359467 0.2535566573 1
40.1076127589 111.6974535286 10.7014649076 0.1478738905 1
42.6951968372 111.6974535286 10.5563987319 0.2792031024 1
45.2827809155 111.6974535286 10.5608598178 -0.2112517444 1
47.8703649938 111.6974535286 10.4978178477 -0.0280154545 1
50.4579490721 111.6974535286 10.2567738918 -0.0161950851 1
53.0455331504 111.6974535286 10.3337063725 0.0283581931 1
55.6331172287 111.6974535286 10.3643609143 -0.0843836183 1
58.2207013071 111.6974535286 10.5617207772 0.0630172929 1
60.8082853854 111.6974535286 10.341671618 0.0717310795 1
63.3958694637 111.6974535286 10.4920406455 0.2006926531 1
65.983453542 111.6974535286 10.3256725793 0.2439380408 1
68.5710376203 111.6974535286 10.4943794939 0.0846948249 1
71.1586216986 111.6974535286 0 -0 0
73.7462057769 111.6974535286 0 -0 0
76.3337898552 111.6974535286 0 -0 0
78.9213739336 111.6974535286 0 -0 0
81.5089580119 111.6974535286 0 -0 0
84.0965420902 111.6974535286 10.1221845501 -0.0987594468 1
86.6841261685 111.6974535286 10.2802144712 -0.1741345232 1
89.2717102468 111.6974535286 10.3812428476 -0.0258232983 1
91.8592943251 111.6974535286 10.3155083229 -0.1831800808 1
94.4468784034 111.6974535286 10.2582188778 -0.2226690532 1
97.0344624817 111.6974535286 10.3253545179 0.0410258124 1
99.62204656 111.6974535286 10.3003455666 -0.132983954 1
102.2096306384 111.6974535286 10.2054727757 -0.1151409817 1
104.7972147167 111.6974535286 10.1827176735 -0.0770873986 1
107.384798795 111.6974535286 10.4243264626 -0.0182227267 1
109.9723828733 111.6974535286 10.2468399557 0.0723617186 1
112.5599669516 111.6974535286 10.1430257998 -0.0116462582 1
115.1475510299 111.6974535286 10.1493870286 -0.1227922785 1
117.7351351082 111.6974535286 10.1843353998 -0.1510284567 1
120.3227191865 111.6974535286 10.0870853739 0.0891298626 1
122.9103032649 111.6974535286 10.2223876119 0.0337981404 1
125.4978873432 111.6974535286 10.1161605762 -0.1782405319 1
128.0854714215 111.6974535286 10.1421730662 -0.108686528 1
130.6730554998 111.6974535286 10.0777272387 -0.0656248483 1
133.2606395781 111.6974535286 10.2144113988 0.2041022169 1
135.8482236564 111.6974535286 0 -0 0
-37.5199095905 109.1098694503 10.2429025745 0.2989955721 1
-34.9323255122 109.1098694503 9.9860295784 0.376161115 1
-32.3447414339 109.1098694503 10.6079000073 0.2665999181 1
-29.7571573555 109.1098694503 10.156661313 0.3289742333 1
-27.1695732772 109.1098694503 9.9568172806 0.5132455939 1
-24.5819891989 109.1098694503 0 -0 0
-21.9944051206 109.1098694503 0 -0 0
-19.4068210423 109.1098694503 0 -0 0
-16.819236964 109.1098694503 0 -0 0
-14.2316528857 109.1098694503 0 -0 0
-11.6440688074 109.1098694503 0 -0 0
-9.0564847291 109.1098694503 0 -0 0
-6.4689006507 109.1098694503 0 -0 0
-3.8813165724 109.1098694503 0 -0 0
-1.2937324941 109.1098694503 10.4289931916 0.5927102275 1
1.2938515842 109.1098694503 10.6239922709 0.5643383249 1
3.8814356625 109.1098694503 10.7520119988 0.5396488059 1
6.4690197408 109.1098694503 10.5490339645 0.2589966046 1
9.0566038191 109.1098694503 10.136757796 0.4061685664 1
11.6441878974 109.1098694503 10.4930304747 0.40166361 1
14.2317719758 109.1098694503 10.6475480105 0.4452325429 1
16.8193560541 109.1098694503 10.4859481239 0.424184279 1
19.4069401324 109.1098694503 10.6697081184 0.1966058379 1
21.9945242107 109.1098694503 10.3521840968 -0.2058268776 1
24.582108289 109.1098694503 10.6000334706 0.1339929765 1
27.1696923673 109.1098694503 10.6313213934 0.1659430703 1
29.7572764456 109.1098694503 10.4932553112 0.1769504637 1
32.3448605239 109.1098694503 10.5550524546 0.1543022959 1
34.9324446023 109.1098694503 10.6184207119 0.4581304825 1
37.5200286806 109.1098694503 10.6372384329 0.3007709581 1
40.1076127589 109.1098694503 10.3991831577 -0.0008225727 1
42.6951968372 109.1098694503 10.5811334924 0.3007106361 1
45.2827809155 109.1098694503 10.4528834441 0.0552097072 1
47.8703649938 109.1098694503 10.5399719555 0.0347934534 1
50.4579490721 109.1098694503 10.5056158366 0.2811238097 1
53.0455331504 109.1098694503 10.6518390979 0.0369636743 1
55.6331172287 109.1098694503 10.5948540047 0.0299663227 1
58.2207013071 109.1098694503 10.3165996027 -0.0834774174 1
60.8082853854 109.1098694503 10.6073214646 -0.0918813682 1
63.3958694637 109.1098694503 10.3165721836 0.1103769149 1
65.983453542 109.1098694503 10.2759343514 -0.3440739258 1
68.5710376203 109.1098694503 10.5918680658 -0.1633519664 1
71.1586216986 109.1098694503 10.6189115136 0.0398344529 1
73.7462057769 109.1098694503 0 -0 0
76.3337898552 109.1098694503 0 -0 0
78.9213739336 109.1098694503 0 -0 0
81.5089580119 109.1098694503 0 -0 0
84.0965420902 109.1098694503 10.3591046749 -0.1747116951 1
86.6841261685 109.1098694503 10.4838313702 -0.2636907527 1
89.2717102468 109.1098694503 10.5067564708 -0.2410521816 1
91.8592943251 109.1098694503 10.1725040627 -0.0222149461 1
94.4468784034 109.1098694503 10.1342407236 -0.0611939235 1
97.0344624817 109.1098694503 10.1333249261 -0.1799994664 1
99.62204656 109.1098694503 10.397096565 -0.1012299067 1
102.2096306384 109.1098694503 10.0578100122 0.0399276778 1
104.7972147167 109.1098694503 10.1218390695 0.154030847 1
107.384798795 109.1098694503 10.3214418139 0.0885348684 1
109.9723828733 109.1098694503 10.412843348 -0.0034685148 1
112.5599669516 109.1098694503 10.2231471207 -0.0580338734 1
115.1475510299 109.1098694503 10.0464146387 -0.1901760614 1
117.7351351082 109.1098694503 10.1619614229 0.0718215625 1
120.3227191865 109.1098694503 10.0676836263 -0.0604385276 1
122.9103032649 109.1098694503 10.1530008645 -0.0633970473 1
125.4978873432 109.1098694503 10.1760987054 0.0320378349 1
128.0854714215 109.1098694503 10.2259191906 0.1147324372 1
130.6730554998 109.1098694503 10.1196674777 -0.1135890612 1
133.2606395781 109.1098694503 10.2038468237 0.1153658182 1
135.8482236564 109.1098694503 0 -0 0
-37.5199095905 106.522285372 10.4769025663 0.4500637864 1
-34.9323255122 106.522285372 0 -0 0
-32.3447414339 106.522285372 10.0056616463 0.0596913574 1
-29.7571573555 106.522285372 9.8645520452 0.291891286 1
-27.1695732772 106.522285372 9.8678642712 0.2428851477 1
-24.5819891989 106.522285372 10.0273282107 0.3884105932 1
-21.9944051206 106.522285372 0 -0 0
-19.4068210423 106.522285372 0 -0 0
-16.819236964 106.522285372 0 -0 0
-14.2316528857 106.522285372 0 -0 0
-11.6440688074 106.522285372 0 -0 0
-9.0564847291 106.522285372 0 -0 0
-6.4689006507 106.522285372 0 -0 0
-3.8813165724 106.522285372 0 -0 0
-1.2937324941 106.522285372 10.4093885428 0.4862994839 1
1.2938515842 106.522285372 10.2802583418 0.5460305989 1
3.8814356625 106.522285372 10.3097420885 0.1077296018 1
6.4690197408 106.522285372 10.5522886104 0.2564589679 1
9.0566038191 106.522285372 10.1692795778 -0.1587839461 1
11.6441878974 106.522285372 10.2360148993 0.6322033128 1
14.2317719758 106.522285372 10.3149709088 0.4285836719 1
16.8193560541 106.522285372 10.5585620981 0.3581303219 1
19.4069401324 106.522285372 10.7361445718 0.5232878353 1
21.9945242107 106.522285372 10.3679994275 0.0206890738 1
24.582108289 106.522285372 10.1853499061 0.1348374845 1
27.1696923673 106.522285372 10.5620031938 0.4146506616 1
29.7572764456 106.522285372 10.4866500526 0.405156802 1
32.3448605239 106.522285372 10.5652030015 0.1710005213 1
34.9324446023 106.522285372 10.4636509205 0.1766296604 1
37.5200286806 106.522285372 10.6955889968 0.0479176004 1
40.1076127589 106.522285372 10.4460506071 0.0396301807 1
42.6951968372 106.522285372 10.2972252742 -0.0869253678 1
45.2827809155 106.522285372 10.3314141366 -0.1756727341 1
47.8703649938 106.522285372 10.5594916052 -0.13376814 1
50.4579490721 106.522285372 10.5178557181 -0.3262213568 1
53.0455331504 106.522285372 10.6512605552 -0.0002824166 1
55.6331172287 106.522285372 10.5278390085 0.0702422229 1
58.2207013071 106.522285372 10.3128239941 -0.0838242688 1
60.8082853854 106.522285372 10.4044256876 -0.1556444604 1
63.3958694637 106.522285372 10.4022047414 -0.0664405662 1
65.983453542 106.522285372 10.4560448651 0.0058978461 1
68.5710376203 106.522285372 10.4915169409 -0.0854269146 1
71.1586216986 106.522285372 10.2430780567 -0.3316188045 1
73.7462057769 106.522285372 0 -0 0
76.3337898552 106.522285372 0 -0 0
78.9213739336 106.522285372 0 -0 0
81.5089580119 106.522285372 0 -0 0
84.0965420902 106.522285372 10.3154425171 -0.1197994849 1
86.6841261685 106.522285372 10.4314663935 -0.1539047192 1
89.2717102468 106.522285372 10.2857750625 -0.1938666708 1
91.8592943251 106.522285372 10.2822297743 -0.0955459295 1
94.4468784034 106.522285372 10.2366976346 -0.1090841048 1
97.0344624817 106.522285372 10.5092954784 -0.0942997319 1
99.62204656 106.522285372 10.0903784065 -0.0227797794 1
102.2096306384 106.522285372 10.1841708852 -0.0870981081 1
104.7972147167 106.522285372 10.3040306922 -0.1212677772 1
107.384798795 106.522285372 9.9612427217 -0.0659895222 1
109.9723828733 106.522285372 10.4409588822 -0.0321461403 1
112.5599669516 106.522285372 10.4774207871 0.0997808078 1
115.1475510299 106.522285372 10.1586245197 -0.2158211356 1
117.7351351082 106.522285372 10.0425704824 0.0035069015 1
120.3227191865 106.522285372 10.2295056075 -0.081560823 1
122.9103032649 106.522285372 10.2187353892 0.1891766356 1
125.4978873432 106.522285372 10.1856816771 -0.2244718583 1
128.0854714215 106.522285372 10.1522468396 0.1077803271 1
130.6730554998 106.522285372 10.3640894654 0.1079407288 1
133.2606395781 106.522285372 9.8387013278 0.0384100312 1
135.8482236564 106.522285372 0 -0 0
-37.5199095905 103.9347012937 10.2125770617 0.8958378563 1
-34.9323255122 103.9347012937 10.4721097095 0.7258765185 1
-32.3447414339 103.9347012937 9.6624322285 0.3631877729 1
-29.7571573555 103.9347012937 10.2315839744 0.6362448865 1
-27.1695732772 103.9347012937 9.8241335656 0.7010704684 1
-24.5819891989 103.9347012937 10.0140518876 0.822446551 1
-21.9944051206 103.9347012937 0 -0 0
-19.4068210423 103.9347012937 0 -0 0
-16.819236964 103.9347012937 0 -0 0
-14.2316528857 103.9347012937 0 -0 0
-11.6440688074 103.9347012937 0 -0 0
-9.0564847291 103.9347012937 0 -0 0
-6.4689006507 103.9347012937 0 -0 0
-3.8813165724 103.9347012937 0 -0 0
-1.2937324941 103.9347012937 10.3525542545 0.5766138511 1
1.2938515842 103.9347012937 10.1793752865 0.3645861465 1
3.8814356625 103.9347012937 10.6484473566 0.3478755825 1
6.4690197408 103.9347012937 10.39502094 0.4495154046 1
9.0566038191 103.9347012937 10.5181024899 0.4622584264 1
11.6441878974 103.9347012937 10.41724137 0.5296737412 1
14.2317719758 103.9347012937 10.6906809798 0.5125395523 1
16.8193560541 103.9347012937 10.2665104104 -0.1965633383 1
19.4069401324 103.9347012937 10.5103703067 0.6151363006 1
21.9945242107 103.9347012937 10.2416851669 0.4991933106 1
24.582108289 103.9347012937 10.4930962805 -0.0531820656 1
27.1696923673 103.9347012937 10.679565281 0.2501758836 1
29.7572764456 103.9347012937 10.516383313 0.0048106792 1
32.3448605239 103.9347012937 10.6234987272 0.3365364182 1
34.9324446023 103.9347012937 10.5342249144 0.026193456 1
37.5200286806 103.9347012937 10.5712461688 0.1596942599 1
40.1076127589 103.9347012937 10.7023203832 0.431409209 1
42.6951968372 103.9347012937 10.7493386376 -0.2335078192 1
45.2827809155 103.9347012937 10.4184313584 0.095650122 1
47.8703649938 103.9347012937 10.5495110567 -0.2772823952 1
50.4579490721 103.9347012937 10.4750983903 -0.0076321035 1
53.0455331504 103.9347012937 10.4859673173 0.0121096408 1
55.6331172287 103.9347012937 10.4646051048 0.3124185872 1
58.2207013071 103.9347012937 10.7154212241 -0.1582245967 1
60.8082853854 103.9347012937 10.3309041416 -0.0115544042 1
63.3958694637 103.9347012937 10.5380032649 -0.182901777 1
65.983453542 103.9347012937 10.5159336399 -0.0989527513 1
68.5710376203 103.9347012937 10.6299531809 -0.170708508 1
71.1586216986 103.9347012937 10.4127556069 -0.1470951883 1
73.7462057769 103.9347012937 0 -0 0
76.3337898552 103.9347012937 0 -0 0
78.9213739336 103.9347012937 0 -0 0
81.5089580119 103.9347012937 0 -0 0
84.0965420902 103.9347012937 10.4263445076 -0.057685651 1
86.6841261685 103.9347012937 10.2743522699 -0.234267328 1
89.2717102468 103.9347012937 10.2259630611 -0.1394850201 1
91.8592943251 103.9347012937 10.3244442041 -0.0992392808 1
94.4468784034 103.9347012937 10.2343478186 0.0324779113 1
97.0344624817 103.9347012937 10.2882153615 -0.1620358501 1
99.62204656 103.9347012937 10.2851087787 -0.029867614 1
102.2096306384 103.9347012937 10.1650542962 -0.0567629987 1
104.7972147167 103.9347012937 10.1023249037 0.0569892061 1
107.384798795 103.9347012937 10.1595978974 0.0636081743 1
109.9723828733 103.9347012937 10.2825121909 -0.0862645678 1
112.5599669516 103.9347012937 10.0254253259 -0.0880975339 1
115.1475510299 103.9347012937 10.0523316782 0.0037742376 1
117.7351351082 103.9347012937 9.9351534582 -0.1081491139 1
120.3227191865 103.9347012937 10.0486849393 0.0606222355 1
122.9103032649 103.9347012937 10.1557619668 0.0103479643 1
125.4978873432 103.9347012937 10.3571579196 0.1299253546 1
128.0854714215 103.9347012937 10.0567763126 -0.110464656 1
130.6730554998 103.9347012937 9.9471849546 -0.0647241312 1
133.2606395781 103.9347012937 10.268660067 0.0779524709 1
135.8482236564 103.9347012937 0 -0 0
-37.5199095905 101.3471172154 9.8322413904 0.3246447591 1
-34.9323255122 101.3471172154 9.9360665139 0.0215185013 1
-32.3447414339 101.3471172154 9.8317149438 0.2361126327 1
-29.7571573555 101.3471172154 10.0984451026 0.5674874073 1
-27.1695732772 101.3471172154 9.9836825043 0.575412895 1
-24.5819891989 101.3471172154 10.0073780813 0.5298766425 1
-21.9944051206 101.3471172154 0 -0 0
-19.4068210423 101.3471172154 0 -0 0
-16.819236964 101.3471172154 0 -0 0
-14.2316528857 101.3471172154 0 -0 0
-11.6440688074 101.3471172154 0 -0 0
-9.0564847291 101.3471172154 0 -0 0
-6.4689006507 101.3471172154 0 -0 0
-3.8813165724 101.3471172154 0 -0 0
-1.2937324941 101.3471172154 10.3318117134 0.3569430754 1
1.2938515842 101.3471172154 10.395473355 0.570717376 1
3.8814356625 101.3471172154 10.5907466251 0.6037080242 1
6.4690197408 101.3471172154 10.3873764979 0.420963907 1
9.0566038191 101.3471172154 10.3629433474 0.3075201669 1
11.6441878974 101.3471172154 10.6815339716 0.3511946633 1
14.2317719758 101.3471172154 10.47932093 0.2730365493 1
16.8193560541 101.3471172154 10.5652331625 0.5173529734 1
19.4069401324 101.3471172154 10.443703533 0.0096103908 1
21.9945242107 101.3471172154 10.5384310027 0.5692669062 1
24.582108289 101.3471172154 10.705459869 0.222043898 1
27.1696923673 101.3471172154 10.5420749997 0.2759566823 1
29.7572764456 101.3471172154 10.6329857321 0.4129876939 1
32.3448605239 101.3471172154 10.6657981563 0.0987992044 1
34.9324446023 101.3471172154 10.4973736584 0.2578902443 1
37.5200286806 101.3471172154 10.5507723348 0.0459708451 1
40.1076127589 101.3471172154 10.5431635375 0.1976875209 1
42.6951968372 101.3471172154 10.5033894066 0.3058805054 1
45.2827809155 101.3471172154 10.4994602511 -0.0278235209 1
47.8703649938 101.3471172154 10.6074256571 -0.1489665412 1
50.4579490721 101.3471172154 10.5321328379 -0.024356377 1
53.0455331504 101.3471172154 10.6623652863 -0.2369639954 1
55.6331172287 101.3471172154 10.5104306287 0.1353214314 1
58.2207013071 101.3471172154 10.5086566137 -0.1974311524 1
60.8082853854 101.3471172154 10.6237592086 -0.1693430374 1
63.3958694637 101.3471172154 10.5244308157 -0.0718585783 1
65.983453542 101.3471172154 10.4560887357 -0.2427220041 1
68.5710376203 101.3471172154 10.5153852582 0.1961726163 1
71.1586216986 101.3471172154 10.5404134029 -0.1505870093 1
73.7462057769 101.3471172154 0 -0 0
76.3337898552 101.3471172154 0 -0 0
78.9213739336 101.3471172154 0 -0 0
81.5089580119 101.3471172154 0 -0 0
84.0965420902 101.3471172154 10.090244053 -0.1766543375 1
86.6841261685 101.3471172154 10.0021657124 -0.1038923003 1
89.2717102468 101.3471172154 10.382918154 -0.0808671201 1
91.8592943251 101.3471172154 10.4314115553 -0.2239742018 1
94.4468784034 101.3471172154 10.2159167068 -0.129582616 1
97.0344624817 101.3471172154 10.2124015796 -0.0937102215 1
99.62204656 101.3471172154 10.3245758158 -0.0056593 1
102.2096306384 101.3471172154 10.1521563566 -0.163212129 1
104.7972147167 101.3471172154 10.2436209546 -0.0089070912 1
107.384798795 101.3471172154 10.0488000995 -0.2121689129 1
109.9723828733 101.3471172154 10.2277590115 -0.01908917 1
112.5599669516 101.3471172154 10.1668255694 -0.0274423955 1
115.1475510299 101.3471172154 10.1279041721 0.0926943442 1
117.7351351082 101.3471172154 10.0306267271 0.0138274467 1
120.3227191865 101.3471172154 10.055166812 -0.1507679753 1
122.9103032649 101.3471172154 10.2428724135 -0.0552206749 1
125.4978873432 101.3471172154 10.1114554604 -0.0206822191 1
128.0854714215 101.3471172154 10.160905788 -0.0600834504 1
130.6730554998 101.3471172154 10.0329573497 0.0817541276 1
133.2606395781 101.3471172154 10.357566464 0.124796614 1
135.8482236564 101.3471172154 0 -0 0
-37.5199095905 98.7595331371 10.057305501 0.5909211319 1
-34.9323255122 98.7595331371 10.1931670884 0.5350807856 1
-32.3447414339 98.7595331371 9.5810715648 0.7215072866 1
-29.7571573555 98.7595331371 10.4622004507 -0.0698638395 1
-27.1695732772 98.7595331371 9.9663454142 0.3231668702 1
-24.5819891989 98.7595331371 10.3606812726 0.7622863271 1
-21.9944051206 98.7595331371 0 -0 0
-19.4068210423 98.7595331371 0 -0 0
-16.819236964 98.7595331371 0 -0 0
-14.2316528857 98.7595331371 0 -0 0
-11.6440688074 98.7595331371 0 -0 0
-9.0564847291 98.7595331371 0 -0 0
-6.4689006507 98.7595331371 0 -0 0
-3.8813165724 98.7595331371 0 -0 0
-1.2937324941 98.7595331371 10.490189857 0.7115418186 1
1.2938515842 98.7595331371 10.193361764 0.3803699453 1
3.8814356625 98.7595331371 10.5624391573 0.6246164508 1