TITLE = "B00009"
VARIABLES = "x", "y", "Vx", "Vy", "isValid"
ZONE T="Frame 0", I=68, J=52, F=POINT
-37.5199095905 119.4602057636 10.2572071134 0.4562125172 1
-34.9323255122 119.4602057636 10.1824297731 0.3813844516 1
-32.3447414339 119.4602057636 10.0376569816 0.5453410088 1
-29.7571573555 119.4602057636 9.9557918067 0.7816867038 1
-27.1695732772 119.4602057636 0 -0 0
-24.5819891989 119.4602057636 0 -0 0
-21.9944051206 119.4602057636 0 -0 0
-19.4068210423 119.4602057636 0 -0 0
-16.819236964 119.4602057636 0 -0 0
-14.2316528857 119.4602057636 0 -0 0
-11.6440688074 119.4602057636 0 -0 0
-9.0564847291 119.4602057636 0 -0 0
-6.4689006507 119.4602057636 0 -0 0
-3.8813165724 119.4602057636 0 -0 0
-1.2937324941 119.4602057636 10.2339420161 0.0797347117 1
1.2938515842 119.4602057636 9.8858649033 0.5319755738 1
3.8814356625 119.4602057636 10.333421214 0.1011257142 1
6.4690197408 119.4602057636 10.3719039058 0.0827110538 1
9.0566038191 119.4602057636 10.3153026798 0.5268166721 1
11.6441878974 119.4602057636 10.4412906532 0.1994533103 1
14.2317719758 119.4602057636 10.325502581 0.5354852172 1
16.8193560541 119.4602057636 10.3898085711 0.2571608966 1
19.4069401324 119.4602057636 10.4929043469 0.4952641551 1
21.9945242107 119.4602057636 10.4975436568 0.2874726998 1
24.582108289 119.4602057636 10.1708314983 -0.171010118 1
27.1696923673 119.4602057636 10.7146096191 0.1922393479 1
29.7572764456 119.4602057636 10.4071319517 0.0089029783 1
32.3448605239 119.4602057636 10.4134493099 0.249622018 1
34.9324446023 119.4602057636 10.2805023716 0.2605690894 1
37.5200286806 119.4602057636 10.2255051623 0.1159210548 1
40.1076127589 119.4602057636 10.7092957995 0.316730239 1
42.6951968372 119.4602057636 10.2661841232 -0.1202820609 1
45.2827809155 119.4602057636 10.459782087 -0.0963465669 1
47.8703649938 119.4602057636 10.322401482 0.2008873287 1
50.4579490721 119.4602057636 10.4597162812 0.0110087644 1
53.0455331504 119.4602057636 10.1238955012 -0.1031944845 1
55.6331172287 119.4602057636 10.5369010175 0.3483088041 1
58.2207013071 119.4602057636 10.3709881082 0.2981442093 1
60.8082853854 119.4602057636 10.3993696075 0.2237973487 1
63.3958694637 119.4602057636 10.1589316135 -0.0922131392 1
65.983453542 119.4602057636 10.4213131047 0.2730173559 1
68.5710376203 119.4602057636 10.1271665986 -0.1231775167 1
71.1586216986 119.4602057636 0 -0 0
73.7462057769 119.4602057636 0 -0 0
76.3337898552 119.4602057636 0 -0 0
78.9213739336 119.4602057636 0 -0 0
81.5089580119 119.4602057636 10.3053193894 -0.0804695433 1
84.0965420902 119.4602057636 10.3257575785 0.2333501594 1
86.6841261685 119.4602057636 10.3606703049 0.1438611067 1
89.2717102468 119.4602057636 10.1307009192 0.0121274632 1
91.8592943251 119.4602057636 10.3301830195 0.129522294 1
94.4468784034 119.4602057636 10.3705274675 0.0166475001 1
97.0344624817 119.4602057636 10.2721340656 -0.1521416717 1
99.62204656 119.4602057636 10.3368074715 0.2118001262 1
102.2096306384 119.4602057636 10.081091561 0.0566217903 1
104.7972147167 119.4602057636 9.8117565887 0.1682339352 1
107.384798795 119.4602057636 10.4050645524 -0.2167273365 1
109.9723828733 119.4602057636 10.378070459 0.173028163 1
112.5599669516 119.4602057636 10.1134406025 -0.1680474854 1
115.1475510299 119.4602057636 10.2203202126 0.0667545148 1
117.7351351082 119.4602057636 10.2826163834 0.2476313921 1
120.3227191865 119.4602057636 10.061278527 0.11937586 1
122.9103032649 119.4602057636 10.1431601534 0.0420622539 1
125.4978873432 119.4602057636 10.1987002607 0.1844715199 1
128.0854714215 119.4602057636 10.1695565106 0.0491404918 1
130.6730554998 119.4602057636 10.3167394401 0.0265005498 1
133.2606395781 119.4602057636 10.2187847436 0.3054349452 1
135.8482236564 119.4602057636 0 -0 0
-37.5199095905 116.8726216853 0 -0 0
-34.9323255122 116.8726216853 10.1014886215 0.7668159607 1
-32.3447414339 116.8726216853 9.8738635679 0.5445074685 1
-29.7571573555 116.8726216853 9.6612861105 0.4886630094 1
-27.1695732772 116.8726216853 9.8484351045 0.4877965661 1
-24.5819891989 116.8726216853 0 -0 0
-21.9944051206 116.8726216853 0 -0 0
-19.4068210423 116.8726216853 0 -0 0
-16.819236964 116.8726216853 0 -0 0
-14.2316528857 116.8726216853 0 -0 0
-11.6440688074 116.8726216853 0 -0 0
-9.0564847291 116.8726216853 0 -0 0
-6.4689006507 116.8726216853 0 -0 0
-3.8813165724 116.8726216853 0 -0 0
-1.2937324941 116.8726216853 10.2736366317 0.3404025097 1
1.2938515842 116.8726216853 10.1310738188 0.1326165382 1
3.8814356625 116.8726216853 9.7315831717 0.4678519206 1
6.4690197408 116.8726216853 10.623175182 0.0918745134 1
9.0566038191 116.8726216853 10.5671086282 -0.0624990721 1
11.6441878974 116.8726216853 10.1038850499 0.2957340714 1
14.2317719758 116.8726216853 10.5081301671 0.3254330579 1
16.8193560541 116.8726216853 10.2896521217 0.2589472502 1
19.4069401324 116.8726216853 10.4940038523 0.4375538269 1
21.9945242107 116.8726216853 10.448490906 0.5641038916 1
24.582108289 116.8726216853 10.442560157 0.0025486043 1
27.1696923673 116.8726216853 10.5048481021 0.0017068383 1
29.7572764456 116.8726216853 0 -0 0
32.3448605239 116.8726216853 10.4767545033 0.2608611027 1
34.9324446023 116.8726216853 10.3513971689 0.1714803554 1
37.5200286806 116.8726216853 10.3653288082 0.1281321462 1
40.1076127589 116.8726216853 10.5563438937 0.1205987514 1
42.6951968372 116.8726216853 10.4670892743 -0.0306600256 1
45.2827809155 116.8726216853 10.448490906 -0.3398554989 1
47.8703649938 116.8726216853 10.3564779262 0.0602589325 1
50.4579490721 116.8726216853 10.4640293039 -0.0608374753 1
53.0455331504 116.8726216853 10.510482725 0.10841645 1
55.6331172287 116.8726216853 10.4028518319 0.4247340317 1
58.2207013071 116.8726216853 10.0743821098 0.2089855567 1
60.8082853854 116.8726216853 10.2746648475 0.4444744051 1
63.3958694637 116.8726216853 10.444638524 -0.3016963523 1
65.983453542 116.8726216853 10.2815278456 0.1310303439 1
68.5710376203 116.8726216853 10.392640963 -0.3755236212 1
71.1586216986 116.8726216853 0 -0 0
73.7462057769 116.8726216853 0 -0 0
76.3337898552 116.8726216853 0 -0 0
78.9213739336 116.8726216853 0 -0 0
81.5089580119 116.8726216853 0 -0 0
84.0965420902 116.8726216853 10.2442488518 0.0255765265 1
86.6841261685 116.8726216853 10.3840204014 0.0749048391 1
89.2717102468 116.8726216853 10.3827755747 0.052085302 1
91.8592943251 116.8726216853 10.1984946175 -0.2016262731 1
94.4468784034 116.8726216853 10.4500483103 -0.0772176393 1
97.0344624817 116.8726216853 10.3955830313 -0.0515273236 1
99.62204656 116.8726216853 10.3599217638 0.0416454838 1
102.2096306384 116.8726216853 10.3278661065 0.1197816625 1
104.7972147167 116.8726216853 10.0715935884 0.3315091281 1
107.384798795 116.8726216853 10.1995529943 -0.0138068824 1
109.9723828733 116.8726216853 10.2099091844 0.0060349416 1
112.5599669516 116.8726216853 10.2184118439 -0.1079914541 1
115.1475510299 116.8726216853 10.214194788 0.0824108148 1
117.7351351082 116.8726216853 10.0842365305 -0.1865677093 1
120.3227191865 116.8726216853 10.292295322 -0.0736367062 1
122.9103032649 116.8726216853 10.0945570757 -0.07141576 1
125.4978873432 116.8726216853 10.1252116175 -0.1242249259 1
128.0854714215 116.8726216853 10.02126585 -0.0787352859 1
130.6730554998 116.8726216853 10.2476515608 -0.0503976571 1
133.2606395781 116.8726216853 10.2945190101 0.2029423894 1
135.8482236564 116.8726216853 0 -0 0
-37.5199095905 114.285037607 10.4364155391 0.4927758728 1
-34.9323255122 114.285037607 9.9012333028 0.3801176896 1
-32.3447414339 114.285037607 9.8609820797 0.1730939688 1
-29.7571573555 114.285037607 10.4003512109 0.2355354608 1
-27.1695732772 114.285037607 9.8312817222 0.4728463077 1
-24.5819891989 114.285037607 0 -0 0
-21.9944051206 114.285037607 0 -0 0
-19.4068210423 114.285037607 0 -0 0
-16.819236964 114.285037607 0 -0 0
-14.2316528857 114.285037607 0 -0 0
-11.6440688074 114.285037607 0 -0 0
-9.0564847291 114.285037607 0 -0 0
-6.4689006507 114.285037607 0 -0 0
-3.8813165724 114.285037607 0 -0 0
-1.2937324941 114.285037607 10.0310901097 0.4586336228 1
1.2938515842 114.285037607 10.2087274216 0.4593725672 1
3.8814356625 114.285037607 10.4440901422 -0.0358847331 1
6.4690197408 114.285037607 10.300814433 0.2917912063 1
9.0566038191 114.285037607 10.5573666258 -0.3306070401 1
11.6441878974 114.285037607 10.5964607633 0.6310736463 1
14.2317719758 114.285037607 10.3986430017 0.3033264172 1
16.8193560541 114.285037607 10.529149641 -0.0921528172 1
19.4069401324 114.285037607 10.6852903869 -0.023964284 1
21.9945242107 114.285037607 10.6698506977 0.2260731331 1
24.582108289 114.285037607 10.312253677 0.2332281445 1
27.1696923673 114.285037607 10.3517728104 0.3786727036 1
29.7572764456 114.285037607 10.4277401392 0.1844838585 1
32.3448605239 114.285037607 10.4241263033 0.2358795704 1
34.9324446023 114.285037607 10.3751558098 0.2659418599 1
37.5200286806 114.285037607 10.3643910753 0.4026136814 1
40.1076127589 114.285037607 10.5135180182 -0.368364497 1
42.6951968372 114.285037607 10.2787502918 0.2750765295 1
45.2827809155 114.285037607 10.8070366271 0.1022869126 1
47.8703649938 114.285037607 10.4889806752 -0.1270161892 1
50.4579490721 114.285037607 10.417781526 -0.0313797767 1
53.0455331504 114.285037607 10.5263035395 -0.1323958146 1
55.6331172287 114.285037607 10.4040911747 -0.4499184652 1
58.2207013071 114.285037607 10.2286802929 -0.2132409993 1
60.8082853854 114.285037607 10.3306436602 -0.0124372989 1
63.3958694637 114.285037607 10.4148833283 0.1150436439 1
65.983453542 114.285037607 10.4401664705 0.0044158443 1
68.5710376203 114.285037607 10.6970997886 0.0249623389 1
71.1586216986 114.285037607 0 -0 0
73.7462057769 114.285037607 0 -0 0
76.3337898552 114.285037607 0 -0 0
78.9213739336 114.285037607 0 -0 0
81.5089580119 114.285037607 0 -0 0
84.0965420902 114.285037607 10.2847523305 -0.1334761267 1
86.6841261685 114.285037607 9.947653821 0.0683859506 1
89.2717102468 114.285037607 10.3327384787 -0.0023415902 1
91.8592943251 114.285037607 10.3328317036 0.0240479123 1
94.4468784034 114.285037607 10.4006308857 0.1535633515 1
97.0344624817 114.285037607 10.4134136651 -0.0571029954 1
99.62204656 114.285037607 10.1873377901 -0.0917305632 1
102.2096306384 114.285037607 10.448671872 -0.0961107627 1
104.7972147167 114.285037607 10.3773438531 -0.1966469665 1
107.384798795 114.285037607 10.1450273934 -0.2080341143 1
109.9723828733 114.285037607 10.2713608473 -0.0844316017 1
112.5599669516 114.285037607 10.1635791492 -0.0214636631 1
115.1475510299 114.285037607 9.9624381939 -0.1244086338 1
117.7351351082 114.285037607 10.161147076 0.0025047338 1
120.3227191865 114.285037607 10.1534587633 0.0801610785 1
122.9103032649 114.285037607 10.2750048442 0.1678349875 1
125.4978873432 114.285037607 10.0785443276 0.2199970629 1
128.0854714215 114.285037607 10.2468783424 0.0447931952 1
130.6730554998 114.285037607 10.2612404614 0.0644801013 1
133.2606395781 114.285037607 9.9380352045 0.0958681038 1
135.8482236564 114.285037607 0 -0 0
-37.5199095905 111.6974535286 10.0609714332 0.3998183053 1
-34.9323255122 111.6974535286 10.2897234114 0.3642036502 1
-32.3447414339 111.6974535286 10.1837047607 0.4265423207 1
-29.7571573555 111.6974535286 10.3734393748 0.7203762492 1
-27.1695732772 111.6974535286 10.1854595824 0.375711442 1
-24.5819891989 111.6974535286 0 -0 0
-21.9944051206 111.6974535286 0 -0 0
-19.4068210423 111.6974535286 0 -0 0
-16.819236964 111.6974535286 0 -0 0
-14.2316528857 111.6974535286 0 -0 0
-11.6440688074 111.6974535286 0 -0 0
-9.0564847291 111.6974535286 0 -0 0
-6.4689006507 111.6974535286 0 -0 0
-3.8813165724 111.6974535286 0 -0 0
-1.2937324941 111.6974535286 10.218409102 0.4300053516 1
1.2938515842 111.6974535286 10.2104986948 0.509087489 1
3.8814356625 111.6974535286 10.125620162 -0.2174978129 1
6.4690197408 111.6974535286 10.4183792622 0.07144455 1
9.0566038191 111.6974535286 10.5817860667 0.4023175553 1
11.6441878974 111.6974535286 10.245987222 0.3481470315 1
14.2317719758 111.6974535286 10.5122731915 0.0676593447 1
16.8193560541 111.6974535286 10.6032634393 0.4732767874 1
19.4069401324 111.6974535286 10.609959181 0.2635180124 1
21.9945242107 111.6974535286 10.4862223148 0.3607104582 1
24.582108289 111.6974535286 10.3987609038 0.0537578665 1
27.1696923673 111.6974535286 10.3710566559 0.0414000829 1
29.7572764456 111.6974535286 10.6390672861 0.0851499818 1
32.3448605239 111.6974535286 10.4563547008 0.3018978827 1
34.9324446023 111.6974535286 10.4048835864 0.2944577128 1
37.5200286806 111.6974535286 10.4858795762 0.1213431797 1
40.1076127589 111.6974535286 10.5471118864 -0.0095322464 1
42.6951968372 111.6974535286 10.4248364577 0.2824618612 1
45.2827809155 111.6974535286 10.324839039 0.3039241534 1
47.8703649938 111.6974535286 10.4951225512 0.3090501521 1
50.4579490721 111.6974535286 10.548178489 0.043685464 1
53.0455331504 111.6974535286 10.2300814083 0.041457663 1
55.6331172287 111.6974535286 10.2700063443 -0.13286331 1
58.2207013071 111.6974535286 10.5849941001 -0.0986264642 1
60.8082853854 111.6974535286 10.4613202979 -0.0727976821 1
63.3958694637 111.6974535286 10.4562477664 -0.0347070832 1
65.983453542 111.6974535286 10.3463493146 0.2266132892 1
68.5710376203 111.6974535286 10.4742593661 0.0638165594 1
71.1586216986 111.6974535286 0 -0 0
73.7462057769 111.6974535286 0 -0 0
76.3337898552 111.6974535286 0 -0 0
78.9213739336 111.6974535286 0 -0 0
81.5089580119 111.6974535286 0 -0 0
84.0965420902 111.6974535286 10.1177042709 -0.0263565996 1
86.6841261685 111.6974535286 10.2025581265 -0.1856190088 1
89.2717102468 111.6974535286 10.0000352492 -0.0372789938 1
91.8592943251 111.6974535286 10.0945515919 -0.0658250077 1
94.4468784034 111.6974535286 10.002568773 -0.090472027 1
97.0344624817 111.6974535286 10.1003562131 -0.1306889762 1
99.62204656 111.6974535286 10.3057416433 -0.1306176866 1
102.2096306384 111.6974535286 10.3321188072 -0.004816163 1
104.7972147167 111.6974535286 10.3026981244 -0.0524527178 1
107.384798795 111.6974535286 10.1754241958 -0.1788464937 1
109.9723828733 111.6974535286 10.3074608202 0.0187889309 1
112.5599669516 111.6974535286 10.3268296649 -0.1509146675 1
115.1475510299 111.6974535286 10.2506676606 0.111006183 1
117.7351351082 111.6974535286 10.0270649874 -0.2116698855 1
120.3227191865 111.6974535286 10.2243343672 -0.0223438159 1
122.9103032649 111.6974535286 10.2004084699 -0.0495175043 1
125.4978873432 111.6974535286 10.1512213656 -0.0586261258 1
128.0854714215 111.6974535286 10.1291188378 0.1060268764 1
130.6730554998 111.6974535286 10.2177537858 -0.0188423982 1
133.2606395781 111.6974535286 10.3598120874 0.1440297341 1
135.8482236564 111.6974535286 0 -0 0
-37.5199095905 109.1098694503 9.8301301205 0.70556857 1
-34.9323255122 109.1098694503 9.3792369066 0.5103583638 1
-32.3447414339 109.1098694503 9.8853987788 0.3078725022 1
-29.7571573555 109.1098694503 9.7609490163 0.388598414 1
-27.1695732772 109.1098694503 10.3721122909 0.6223310697 1
-24.5819891989 109.1098694503 0 -0 0
-21.9944051206 109.1098694503 0 -0 0
-19.4068210423 109.1098694503 0 -0 0
-16.819236964 109.1098694503 0 -0 0
-14.2316528857 109.1098694503 0 -0 0
-11.6440688074 109.1098694503 0 -0 0
-9.0564847291 109.1098694503 0 -0 0
-6.4689006507 109.1098694503 0 -0 0
-3.8813165724 109.1098694503 0 -0 0
-1.2937324941 109.1098694503 10.5212447175 0.2663695977 1
1.2938515842 109.1098694503 10.3030244116 0.4058244568 1
3.8814356625 109.1098694503 10.1851332953 0.3947553705 1
6.4690197408 109.1098694503 10.3976147858 0.3249545948 1
9.0566038191 109.1098694503 10.4853805488 0.5675038587 1
11.6441878974 109.1098694503 10.5063150234 0.0552138201 1
14.2317719758 109.1098694503 10.3543090762 0.3035293185 1
16.8193560541 109.1098694503 10.3019550671 0.4765300624 1
19.4069401324 109.1098694503 10.5476109138 0.2359056185 1
21.9945242107 109.1098694503 10.425036617 0.328652059 1
24.582108289 109.1098694503 10.6012015238 0.3229694528 1
27.1696923673 109.1098694503 10.4052921308 0.1230171151 1
29.7572764456 109.1098694503 10.4912975882 0.085112966 1
32.3448605239 109.1098694503 10.7124352853 0.347047526 1
34.9324446023 109.1098694503 10.5490613836 0.2710020528 1
37.5200286806 109.1098694503 10.5121662571 0.0830524215 1
40.1076127589 109.1098694503 10.7210284279 -0.0042856037 1
42.6951968372 109.1098694503 10.6099920839 0.3067990449 1
45.2827809155 109.1098694503 10.4022239347 -0.2043476177 1
47.8703649938 109.1098694503 10.6242856551 -0.2716998687 1
50.4579490721 109.1098694503 10.4945878789 0.0806422835 1
53.0455331504 109.1098694503 10.5463606033 0.2488145258 1
55.6331172287 109.1098694503 10.4648134899 -0.0259987805 1
58.2207013071 109.1098694503 10.4160760587 0.1602563512 1
60.8082853854 109.1098694503 10.3710593979 -0.0158441207 1
63.3958694637 109.1098694503 10.5856274811 0.018487321 1
65.983453542 109.1098694503 10.5316694553 0.0071303342 1
68.5710376203 109.1098694503 10.3843165275 0.0065134047 1
71.1586216986 109.1098694503 10.365545419 -0.2387942196 1
73.7462057769 109.1098694503 0 -0 0
76.3337898552 109.1098694503 0 -0 0
78.9213739336 109.1098694503 0 -0 0
81.5089580119 109.1098694503 0 -0 0
84.0965420902 109.1098694503 10.3964083459 -0.236314163 1
86.6841261685 109.1098694503 10.2900990529 0.0530477121 1
89.2717102468 109.1098694503 10.2863536053 -0.1831622584 1
91.8592943251 109.1098694503 10.3783035212 0.1072758159 1
94.4468784034 109.1098694503 10.2021084535 -0.2359714244 1
97.0344624817 109.1098694503 10.1762495103 0.1006746702 1
99.62204656 109.1098694503 10.2717831013 0.0408133144 1
102.2096306384 109.1098694503 10.0760848352 0.121484388 1
104.7972147167 109.1098694503 10.2425708035 -0.0088371725 1
107.384798795 109.1098694503 10.1961557692 -0.0193318289 1
109.9723828733 109.1098694503 10.3898332483 -0.0665104849 1
112.5599669516 109.1098694503 10.1679058815 -0.1702218192 1
115.1475510299 109.1098694503 10.056192286 -0.2598178063 1
117.7351351082 109.1098694503 9.9999941206 -0.1003620925 1
120.3227191865 109.1098694503 10.3154041304 -0.1492229097 1
122.9103032649 109.1098694503 10.297562529 -0.1269778025 1
125.4978873432 109.1098694503 10.0278848182 -0.0540910084 1
128.0854714215 109.1098694503 10.1616488453 0.1908231519 1
130.6730554998 109.1098694503 10.2125825456 -0.0411807302 1
133.2606395781 109.1098694503 10.3474159172 -0.2800051108 1
135.8482236564 109.1098694503 0 -0 0
-37.5199095905 106.522285372 10.3628939931 0.3394071968 1
-34.9323255122 106.522285372 10.294913845 0.4295570495 1
-32.3447414339 106.522285372 10.0649389755 0.2300406753 1
-29.7571573555 106.522285372 10.4656963845 0.243567883 1
-27.1695732772 106.522285372 10.3734585682 0.578182223 1
-24.5819891989 106.522285372 10.1671271793 0.3765381275 1
-21.9944051206 106.522285372 0 -0 0
-19.4068210423 106.522285372 0 -0 0
-16.819236964 106.522285372 0 -0 0
-14.2316528857 106.522285372 0 -0 0
-11.6440688074 106.522285372 0 -0 0
-9.0564847291 106.522285372 0 -0 0
-6.4689006507 106.522285372 0 -0 0
-3.8813165724 106.522285372 0 -0 0
-1.2937324941 106.522285372 10.47053037 0.5393883246 1
1.2938515842 106.522285372 10.4566316336 0.2365472252 1
3.8814356625 106.522285372 10.4956819006 0.1534070627 1
6.4690197408 106.522285372 10.5937874021 0.5682441741 1
9.0566038191 106.522285372 10.5919914517 0.5869481059 1
11.6441878974 106.522285372 10.8055203515 0.3691390863 1
14.2317719758 106.522285372 10.1838747591 0.490420573 1
16.8193560541 106.522285372 10.3659018672 0.2420420107 1
19.4069401324 106.522285372 10.5328621857 0.3122266536 1
21.9945242107 106.522285372 10.4936007917 -0.0273875573 1
24.582108289 106.522285372 10.6517870017 0.0386348678 1
27.1696923673 106.522285372 10.4087140332 0.2128132615 1
29.7572764456 106.522285372 10.6401832431 0.3528165024 1
32.3448605239 106.522285372 10.5684740989 0.0694703756 1
34.9324446023 106.522285372 10.6032497298 0.195126578 1
37.5200286806 106.522285372 10.5619538394 0.2176541018 1
40.1076127589 106.522285372 10.4928357991 0.231979205 1
42.6951968372 106.522285372 10.5113436844 0.1636960759 1
45.2827809155 106.522285372 10.6617510987 0.0175920877 1
47.8703649938 106.522285372 10.6291881883 -0.174533471 1
50.4579490721 106.522285372 10.5618523888 0.2001058846 1
53.0455331504 106.522285372 10.4575035607 0.1646502602 1
55.6331172287 106.522285372 10.3345892672 0.1627144725 1
58.2207013071 106.522285372 10.7468736614 0.0434112731 1
60.8082853854 106.522285372 10.4534236002 -0.0780415829 1
63.3958694637 106.522285372 10.5066029239 -0.21746491 1
65.983453542 106.522285372 10.4768422443 -0.0368032726 1
68.5710376203 106.522285372 10.4535552118 0.2207977003 1
71.1586216986 106.522285372 10.5358453826 -0.1632354352 1
73.7462057769 106.522285372 0 -0 0
76.3337898552 106.522285372 0 -0 0
78.9213739336 106.522285372 0 -0 0
81.5089580119 106.522285372 0 -0 0
84.0965420902 106.522285372 10.1810341414 0.0604919948 1
86.6841261685 106.522285372 10.2596117675 0.1444190852 1
89.2717102468 106.522285372 10.2438485331 -0.2650987229 1
91.8592943251 106.522285372 10.02626435 -0.2451074649 1
94.4468784034 106.522285372 10.3461381876 0.1209867315 1
97.0344624817 106.522285372 9.875034363 -0.0323106548 1
99.62204656 106.522285372 10.2028103821 -0.1712747122 1
102.2096306384 106.522285372 10.242557094 -0.0239834774 1
104.7972147167 106.522285372 10.2908229169 -0.1327083922 1
107.384798795 106.522285372 10.1012884621 0.1260825692 1
109.9723828733 106.522285372 10.0253403267 -0.1534906909 1
112.5599669516 106.522285372 10.2034492469 -0.125185965 1
115.1475510299 106.522285372 10.1665596042 -0.0254791887 1
117.7351351082 106.522285372 10.002330227 -0.0229004234 1
120.3227191865 106.522285372 9.9110109501 0.0028872301 1
122.9103032649 106.522285372 10.1854870015 0.1823657338 1
125.4978873432 106.522285372 9.9106791791 0.1021415914 1
128.0854714215 106.522285372 10.1267991828 -0.0297661633 1
130.6730554998 106.522285372 10.0061579318 -0.1317322726 1
133.2606395781 106.522285372 10.2676894312 0.1699174673 1
135.8482236564 106.522285372 0 -0 0
-37.5199095905 103.9347012937 9.7135825395 0.5251578172 1
-34.9323255122 103.9347012937 9.7328554174 0.2879895496 1
-32.3447414339 103.9347012937 10.3888982573 0.3634551091 1
-29.7571573555 103.9347012937 10.3160649305 0.2167712071 1
-27.1695732772 103.9347012937 10.2504044373 0.4111245668 1
-24.5819891989 103.9347012937 9.6776086944 0.7934056225 1
-21.9944051206 103.9347012937 0 -0 0
-19.4068210423 103.9347012937 0 -0 0
-16.819236964 103.9347012937 0 -0 0
-14.2316528857 103.9347012937 0 -0 0
-11.6440688074 103.9347012937 0 -0 0
-9.0564847291 103.9347012937 0 -0 0
-6.4689006507 103.9347012937 0 -0 0
-3.8813165724 103.9347012937 0 -0 0
-1.2937324941 103.9347012937 10.6717810016 0.3384118839 1
1.2938515842 103.9347012937 10.3733817947 0.288308982 1
3.8814356625 103.9347012937 10.4331773446 0.2797240651 1
6.4690197408 103.9347012937 10.4543531073 0.4629644679 1
9.0566038191 103.9347012937 10.462219644 0.5874649557 1
11.6441878974 103.9347012937 10.5940643349 0.2951843186 1
14.2317719758 103.9347012937 10.5577066225 0.2637949452 1
16.8193560541 103.9347012937 10.5239071111 0.4764738532 1
19.4069401324 103.9347012937 10.4701821476 -0.2372697182 1
21.9945242107 103.9347012937 10.4032494087 0.3024969898 1
24.582108289 103.9347012937 10.718525065 0.0506663641 1
27.1696923673 103.9347012937 10.4933074075 0.0584314502 1
29.7572764456 103.9347012937 10.5832173432 0.1231117109 1
32.3448605239 103.9347012937 10.7115222296 0.2771233645 1
34.9324446023 103.9347012937 10.5416006494 -0.1332348387 1
37.5200286806 103.9347012937 10.5035319859 -0.0510063609 1
40.1076127589 103.9347012937 10.3987280009 0.0947452921 1
42.6951968372 103.9347012937 10.3718161647 0.0341765238 1
45.2827809155 103.9347012937 10.7246230705 -0.070722057 1
47.8703649938 103.9347012937 10.5545945559 0.0427998274 1
50.4579490721 103.9347012937 10.3666750855 0.1284748848 1
53.0455331504 103.9347012937 10.5673636257 -0.1826975048 1
55.6331172287 103.9347012937 10.4673305623 -0.2838739443 1
58.2207013071 103.9347012937 10.5495549272 0.1337050761 1
60.8082853854 103.9347012937 10.5868092439 -0.1878536646 1
63.3958694637 103.9347012937 10.4589759658 -0.0705575425 1
65.983453542 103.9347012937 10.780456562 -0.0200118223 1
68.5710376203 103.9347012937 10.4815720372 -0.1241001691 1
71.1586216986 103.9347012937 10.3152834864 -0.0305791393 1
73.7462057769 103.9347012937 0 -0 0
76.3337898552 103.9347012937 0 -0 0
78.9213739336 103.9347012937 0 -0 0
81.5089580119 103.9347012937 0 -0 0
84.0965420902 103.9347012937 10.2827041245 -0.0669628999 1
86.6841261685 103.9347012937 10.1679442682 -0.1298444683 1
89.2717102468 103.9347012937 10.0834166997 -0.2417404007 1
91.8592943251 103.9347012937 10.0275804663 0.0364276311 1
94.4468784034 103.9347012937 10.2115022334 -0.1671769293 1
97.0344624817 103.9347012937 10.3891450292 -0.0369143199 1
99.62204656 103.9347012937 10.2636725346 -0.0044912468 1
102.2096306384 103.9347012937 10.3262620898 -0.0844974075 1
104.7972147167 103.9347012937 10.197123663 0.1089031389 1
107.384798795 103.9347012937 10.1486988094 -0.1715324517 1
109.9723828733 103.9347012937 10.2744290434 0.0338639462 1
112.5599669516 103.9347012937 10.2871569846 -0.1879688247 1
115.1475510299 103.9347012937 9.9991249354 0.0633175319 1
117.7351351082 103.9347012937 10.2245125913 -0.1103782859 1
120.3227191865 103.9347012937 10.2133749572 -0.0951223046 1
122.9103032649 103.9347012937 10.2583971019 -0.0565491298 1
125.4978873432 103.9347012937 10.1355815171 -0.1219710768 1
128.0854714215 103.9347012937 10.2126428676 -0.1340752338 1
130.6730554998 103.9347012937 10.2907790463 0.1077433114 1
133.2606395781 103.9347012937 10.3174797555 -0.0409600065 1
135.8482236564 103.9347012937 0 -0 0
-37.5199095905 101.3471172154 10.3035700515 0.4361294052 1
-34.9323255122 101.3471172154 9.7410454994 0.5888249426 1
-32.3447414339 101.3471172154 10.1545061725 0.8776219843 1
-29.7571573555 101.3471172154 10.2809684962 0.5752483805 1
-27.1695732772 101.3471172154 9.9001913774 0.2908329092 1
-24.5819891989 101.3471172154 9.8903835692 0.5308651007 1
-21.9944051206 101.3471172154 0 -0 0
-19.4068210423 101.3471172154 0 -0 0
-16.819236964 101.3471172154 0 -0 0
-14.2316528857 101.3471172154 0 -0 0
-11.6440688074 101.3471172154 0 -0 0
-9.0564847291 101.3471172154 0 -0 0
-6.4689006507 101.3471172154 0 -0 0
-3.8813165724 101.3471172154 0 -0 0
-1.2937324941 101.3471172154 10.1706560161 0.4643984863 1
1.2938515842 101.3471172154 10.4831623444 0.4751399145 1
3.8814356625 101.3471172154 10.4212308474 0.5396885636 1
6.4690197408 101.3471172154 10.724485975 0.4740472638 1
9.0566038191 101.3471172154 10.4058487383 0.5856278767 1
11.6441878974 101.3471172154 10.41507252 0.4021612665 1
14.2317719758 101.3471172154 10.4177897517 0.2641376838 1
16.8193560541 101.3471172154 10.4332102476 0.5003010418 1
19.4069401324 101.3471172154 10.6240498509 -0.039321716 1
21.9945242107 101.3471172154 10.5619840004 0.4460249546 1
24.582108289 101.3471172154 10.5969872098 0.1516659505 1
27.1696923673 101.3471172154 10.4206961752 0.1217407565 1
29.7572764456 101.3471172154 10.6963814085 0.0239711388 1
32.3448605239 101.3471172154 10.5151659054 0.476690464 1
34.9324446023 101.3471172154 10.5511452344 0.2405613799 1
37.5200286806 101.3471172154 10.586743438 0.1421528975 1
40.1076127589 101.3471172154 10.5029698945 -0.3241608122 1
42.6951968372 101.3471172154 10.7621789971 -0.1173783794 1
45.2827809155 101.3471172154 10.6414719403 -0.1500742724 1
47.8703649938 101.3471172154 10.7646439732 0.1291027819 1
50.4579490721 101.3471172154 10.4373313367 0.1917019337 1
53.0455331504 101.3471172154 10.3940393366 -0.0690344121 1
55.6331172287 101.3471172154 10.4251709706 -0.3746160494 1
58.2207013071 101.3471172154 10.4571717897 0.0583587896 1
60.8082853854 101.3471172154 10.4587648388 -0.3225513117 1
63.3958694637 101.3471172154 10.364643331 -0.0009829744 1
65.983453542 101.3471172154 10.2156754188 -0.0996999215 1
68.5710376203 101.3471172154 10.332727511 -0.3091927314 1
71.1586216986 101.3471172154 10.3990625137 -0.1740920236 1
73.7462057769 101.3471172154 0 -0 0
76.3337898552 101.3471172154 0 -0 0
78.9213739336 101.3471172154 0 -0 0
81.5089580119 101.3471172154 0 -0 0
84.0965420902 101.3471172154 10.3301446328 -0.176067569 1
86.6841261685 101.3471172154 10.2920622597 -0.2155332352 1
89.2717102468 101.3471172154 10.1460556092 -0.1497191952 1
91.8592943251 101.3471172154 10.2250966179 -0.09715543 1
94.4468784034 101.3471172154 10.4856328044 -0.1139002679 1
97.0344624817 101.3471172154 10.2794439948 -0.1632464029 1
99.62204656 101.3471172154 10.17571758 -0.1497041147 1
102.2096306384 101.3471172154 10.1666637967 -0.3100852227 1
104.7972147167 101.3471172154 10.0898574438 0.0617752082 1
107.384798795 101.3471172154 10.1082282336 -0.1521060269 1
109.9723828733 101.3471172154 10.273025186 -0.1662720994 1
112.5599669516 101.3471172154 10.1923719348 -0.1104907041 1
115.1475510299 101.3471172154 10.4214776192 -0.3262103891 1
117.7351351082 101.3471172154 10.1728111565 -0.0432220814 1
120.3227191865 101.3471172154 10.195198843 0.2299131766 1
122.9103032649 101.3471172154 10.1576154973 0.1522787672 1
125.4978873432 101.3471172154 10.0297739934 -0.0040072999 1
128.0854714215 101.3471172154 9.9461978674 -0.062834956 1
130.6730554998 101.3471172154 10.2794878653 -0.0802680129 1
133.2606395781 101.3471172154 9.8923330664 0.1780609368 1
135.8482236564 101.3471172154 0 -0 0
-37.5199095905 98.7595331371 9.8120390054 0.0465877746 1
-34.9323255122 98.7595331371 10.2487730015 0.6864327876 1
-32.3447414339 98.7595331371 9.9815163963 0.4291142312 1
-29.7571573555 98.7595331371 10.3627102852 0.723119529 1
-27.1695732772 98.7595331371 9.7222716489 0.4725117948 1
-24.5819891989 98.7595331371 10.3283761016 0.607597422 1
-21.9944051206 98.7595331371 0 -0 0
-19.4068210423 98.7595331371 0 -0 0
-16.819236964 98.7595331371 0 -0 0
-14.2316528857 98.7595331371 0 -0 0
-11.6440688074 98.7595331371 0 -0 0
-9.0564847291 98.7595331371 0 -0 0
-6.4689006507 98.7595331371 0 -0 0
-3.8813165724 98.7595331371 0 -0 0
-1.2937324941 98.7595331371 10.5840755607 0.5188651362 1
1.2938515842 98.7595331371 10.5032852141 0.5072037975 1
3.8814356625 98.7595331371 10.4292948016 0.4257170061 1
6.4690197408 98.7595331371 10.6696560222 0.5809789702 1