TITLE = "B00002"
VARIABLES = "x", "y", "Vx", "Vy", "isValid"
ZONE T="Frame 0", I=51, J=39, F=POINT
-37.0685737133 118.9648749828 0 -0 0
-33.6203176975 118.9648749828 9.3789938356 3.1471471485 1
-30.1720616817 118.9648749828 9.463296396 3.0602754324 1
-26.723805666 118.9648749828 8.715946148 2.9377438361 1
-23.2755496502 118.9648749828 60.8633656279 -42.0778366082 1
-19.8272936344 118.9648749828 35.3565828992 -109.3827262789 1
-16.3790376186 118.9648749828 -112.5743369476 -80.2574762357 1
-12.9307816029 118.9648749828 28.126088287 -79.3296342401 1
-9.4825255871 118.9648749828 -47.0507970316 -28.9356121015 1
-6.0342695713 118.9648749828 7.4113289139 -5.2794093082 1
-2.5860135555 118.9648749828 8.6017728714 -5.5452997893 1
0.8622424603 118.9648749828 8.9477524976 0.8954706346 1
4.310498476 118.9648749828 9.446271458 1.0969266922 1
7.7587544918 118.9648749828 9.6099095446 -0.1319175783 1
11.2070105076 118.9648749828 10.4823948 1.3261296307 1
14.6552665234 118.9648749828 8.9306247933 1.173213487 1
18.1035225391 118.9648749828 9.3246305023 2.1497666735 1
21.5517785549 118.9648749828 9.4004719768 1.4665768057 1
25.0000345707 118.9648749828 9.1059439742 0.2908284185 1
28.4482905865 118.9648749828 10.0404315191 -0.0312066772 1
31.8965466022 118.9648749828 10.8867456424 0.5862813171 1
35.344802618 118.9648749828 10.6052689504 0.0275756039 1
38.7930586338 118.9648749828 10.6401067009 0.6805864568 1
42.2413146496 118.9648749828 9.5924735416 1.1703360326 1
45.6895706654 118.9648749828 9.4047539029 1.2537479524 1
49.1378266811 118.9648749828 9.4274994941 1.3942636382 1
52.5860826969 118.9648749828 9.475285789 -0.9337339259 1
56.0343387127 118.9648749828 9.1387264002 0.3399164189 1
59.4825947285 118.9648749828 9.5989820693 3.4176621097 1
62.9308507442 118.9648749828 9.9246139828 1.1483783158 1
66.37910676 118.9648749828 10.1255562093 1.081820057 1
69.8273627758 118.9648749828 9.5346161566 0.5994011386 1
73.2756187916 118.9648749828 7.5022427682 1.9211460769 1
76.7238748074 118.9648749828 68.7195695324 -163.6596674858 1
80.1721308231 118.9648749828 10.4312514751 0.3690677716 1
83.6203868389 118.9648749828 10.5721782258 -0.5951534679 1
87.0686428547 118.9648749828 10.6328102989 0.3955472024 1
90.5168988705 118.9648749828 10.1883121177 0.6468791348 1
93.9651548862 118.9648749828 9.8729568267 -0.6003260346 1
97.413410902 118.9648749828 10.4786952159 -2.101089738 1
100.8616669178 118.9648749828 10.9363817293 -0.2568127978 1
104.3099229336 118.9648749828 11.0416143444 -0.6485919052 1
107.7581789494 118.9648749828 10.0755775682 -0.7550234596 1
111.2064349651 118.9648749828 9.9176601349 -1.3032812732 1
114.6546909809 118.9648749828 10.7708595953 -0.5679546735 1
118.1029469967 118.9648749828 10.460848148 -1.1732819978 1
121.5512030125 118.9648749828 9.9767507146 -1.3377422142 1
124.9994590282 118.9648749828 10.1797140102 -1.9978096813 1
128.447715044 118.9648749828 10.2777529894 -1.3738131594 1
131.8959710598 118.9648749828 9.8598712607 -0.7953420754 1
135.3442270756 118.9648749828 0 -0 0
-37.0685737133 115.5166189671 8.3707201408 4.0868415154 1
-33.6203176975 115.5166189671 8.7436245181 2.1933052978 1
-30.1720616817 115.5166189671 9.6288185301 2.5997114646 1
-26.723805666 115.5166189671 10.3652413028 1.5998646003 1
-23.2755496502 115.5166189671 11.4857014606 3.6378558757 1
-19.8272936344 115.5166189671 67.0960687003 -163.5118896534 1
-16.3790376186 115.5166189671 31.5389546395 -0.6980567152 1
-12.9307816029 115.5166189671 150.0900039915 24.7264787776 1
-9.4825255871 115.5166189671 161.6323638978 40.6715835769 1
-6.0342695713 115.5166189671 8.3334160009 -1.8586299564 1
-2.5860135555 115.5166189671 8.7583200884 -1.5283735627 1
0.8622424603 115.5166189671 9.6639645792 0.7251527433 1
4.310498476 115.5166189671 8.7973712541 -0.772082653 1
7.7587544918 115.5166189671 8.368390773 -0.223208242 1
11.2070105076 115.5166189671 9.5703788031 2.7209756109 1
14.6552665234 115.5166189671 9.5215991014 -0.6524627664 1
18.1035225391 115.5166189671 10.37339409 1.6135325083 1
21.5517785549 115.5166189671 10.5152114814 0.0719706133 1
25.0000345707 115.5166189671 10.4345742497 -0.9086247114 1
28.4482905865 115.5166189671 9.6288870409 -0.678839431 1
31.8965466022 115.5166189671 9.7527203428 0.8389149551 1
35.344802618 115.5166189671 10.6442516053 1.0898015672 1
38.7930586338 115.5166189671 9.2884225355 -0.4248355767 1
42.2413146496 115.5166189671 9.533896793 1.752952021 1
45.6895706654 115.5166189671 10.6954291857 1.0233460746 1
49.1378266811 115.5166189671 10.1475481816 0.365916274 1
52.5860826969 115.5166189671 9.8527118803 -0.4752937934 1
56.0343387127 115.5166189671 10.3101243505 0.2510236338 1
59.4825947285 115.5166189671 11.2106990409 -0.1619595716 1
62.9308507442 115.5166189671 10.8292650668 0.1078702815 1
66.37910676 115.5166189671 10.460094529 -0.3520428335 1
69.8273627758 115.5166189671 7.962224394 0.7362514957 1
73.2756187916 115.5166189671 9.6426577151 1.9727004668 1
76.7238748074 115.5166189671 0.031103911 4.7825346074 1
80.1721308231 115.5166189671 10.7296160834 -0.5155438985 1
83.6203868389 115.5166189671 10.4380340459 -0.7209735835 1
87.0686428547 115.5166189671 9.8663455329 -1.3018082906 1
90.5168988705 115.5166189671 10.2037955624 0.3084014431 1
93.9651548862 115.5166189671 10.5492956129 0.5794302354 1
97.413410902 115.5166189671 10.1802278413 -2.3601976482 1
100.8616669178 115.5166189671 9.9980575787 -1.6081201537 1
104.3099229336 115.5166189671 10.6125653524 -0.3380666268 1
107.7581789494 115.5166189671 11.1300618092 -2.0179861169 1
111.2064349651 115.5166189671 10.4156995196 -1.3933044868 1
114.6546909809 115.5166189671 10.6245890008 -1.9166928738 1
118.1029469967 115.5166189671 10.6214032478 -1.3111257617 1
121.5512030125 115.5166189671 10.4643421997 -0.569838721 1
124.9994590282 115.5166189671 10.1480620127 -1.5361495404 1
128.447715044 115.5166189671 9.7204174925 -1.7950861735 1
131.8959710598 115.5166189671 9.58897949 -1.0741811009 1
135.3442270756 115.5166189671 0 -0 0
-37.0685737133 112.0683629513 9.5531140772 2.2367069004 1
-33.6203176975 112.0683629513 9.7174030166 1.7263013132 1
-30.1720616817 112.0683629513 10.0028533359 -0.2554768369 1
-26.723805666 112.0683629513 9.8077345289 0.9940577003 1
-23.2755496502 112.0683629513 9.6501253942 -0.5668927559 1
-19.8272936344 112.0683629513 37.794060749 141.7576156528 1
-16.3790376186 112.0683629513 105.4773356624 34.3607096623 1
-12.9307816029 112.0683629513 -6.6231119635 -60.1194066653 1
-9.4825255871 112.0683629513 43.7303175159 -145.3574137697 1
-6.0342695713 112.0683629513 6.6730563491 1.752198402 1
-2.5860135555 112.0683629513 8.4614969734 0.8802954886 1
0.8622424603 112.0683629513 9.4750117458 1.780870179 1
4.310498476 112.0683629513 9.0837122141 3.6465567495 1
7.7587544918 112.0683629513 9.5993246233 1.9488587025 1
11.2070105076 112.0683629513 10.2504856842 1.0093013571 1
14.6552665234 112.0683629513 10.2530548398 -1.08836284 1
18.1035225391 112.0683629513 10.4600602736 1.7159561798 1
21.5517785549 112.0683629513 10.673231681 1.5545789502 1
25.0000345707 112.0683629513 9.5856909707 0.3270706407 1
28.4482905865 112.0683629513 10.6710735902 1.5109718151 1
31.8965466022 112.0683629513 9.6400200487 1.4732566103 1
35.344802618 112.0683629513 9.653208381 1.6254876459 1
38.7930586338 112.0683629513 10.0078203701 1.9775304794 1
42.2413146496 112.0683629513 9.9784977404 2.1771367449 1
45.6895706654 112.0683629513 10.4088484379 1.1035722414 1
49.1378266811 112.0683629513 10.7924405027 1.0557174357 1
52.5860826969 112.0683629513 10.2755263878 0.2127603424 1
56.0343387127 112.0683629513 10.7485593243 1.3872412795 1
59.4825947285 112.0683629513 10.0496804794 2.6653448274 1
62.9308507442 112.0683629513 10.3214286353 1.1785915861 1
66.37910676 112.0683629513 11.2129598979 1.1637932496 1
69.8273627758 112.0683629513 10.6290422039 1.5592034304 1
73.2756187916 112.0683629513 10.7052262325 0.0574463201 1
76.7238748074 112.0683629513 9.2927044615 3.8502736641 1
80.1721308231 112.0683629513 8.9347354423 -1.0050536865 1
83.6203868389 112.0683629513 10.9892035693 -0.3647173347 1
87.0686428547 112.0683629513 10.4305321115 -0.6430082736 1
90.5168988705 112.0683629513 11.0673059008 -0.2339986957 1
93.9651548862 112.0683629513 10.9990348715 0.8946827602 1
97.413410902 112.0683629513 11.3216865646 -0.8172655369 1
100.8616669178 112.0683629513 10.0951716619 1.9685898178 1
104.3099229336 112.0683629513 10.5925259384 -0.8101746673 1
107.7581789494 112.0683629513 10.6786440355 -0.861215226 1
111.2064349651 112.0683629513 10.2365437329 -1.4729140562 1
114.6546909809 112.0683629513 10.372469194 -1.1749947682 1
118.1029469967 112.0683629513 9.5492774715 -0.2210844067 1
121.5512030125 112.0683629513 9.9970641719 -0.2897322454 1
124.9994590282 112.0683629513 10.378087081 -1.6042492926 1
128.447715044 112.0683629513 10.0803048146 -1.6066814266 1
131.8959710598 112.0683629513 10.0756118236 -1.5624919496 1
135.3442270756 112.0683629513 0 -0 0
-37.0685737133 108.6201069355 9.6240570283 0.8005831529 1
-33.6203176975 108.6201069355 9.3870096012 2.3149805089 1
-30.1720616817 108.6201069355 8.9685455306 -1.8511622773 1
-26.723805666 108.6201069355 10.3142007441 2.7333760688 1
-23.2755496502 108.6201069355 9.8342482151 1.411014533 1
-19.8272936344 108.6201069355 -76.6980652455 -98.0789210376 1
-16.3790376186 108.6201069355 -111.8999164643 69.0161186041 1
-12.9307816029 108.6201069355 -55.7771568238 19.4753986922 1
-9.4825255871 108.6201069355 -32.5617526276 -32.8261358706 1
-6.0342695713 108.6201069355 5.7235649353 2.5008503556 1
-2.5860135555 108.6201069355 8.5442580404 0.0262396429 1
0.8622424603 108.6201069355 9.2464939154 3.9447158254 1
4.310498476 108.6201069355 8.9804664127 1.1442676668 1
7.7587544918 108.6201069355 10.5716301392 2.1575426513 1
11.2070105076 108.6201069355 9.6300174694 2.630849631 1
14.6552665234 108.6201069355 10.1730684609 1.5841413678 1
18.1035225391 108.6201069355 9.4215733084 0.663835562 1
21.5517785549 108.6201069355 9.3312760515 1.708762544 1
25.0000345707 108.6201069355 9.4276365158 -0.5179760325 1
28.4482905865 108.6201069355 9.729597942 1.3900159676 1
31.8965466022 108.6201069355 10.2068442937 1.0074858205 1
35.344802618 108.6201069355 10.4682815717 1.7712444092 1
38.7930586338 108.6201069355 10.1343941047 1.2574475366 1
42.2413146496 108.6201069355 9.7608046192 2.1770682341 1
45.6895706654 108.6201069355 10.7881585766 0.4576180026 1
49.1378266811 108.6201069355 10.2871047159 0.6283812142 1
52.5860826969 108.6201069355 10.1523439388 0.7637243333 1
56.0343387127 108.6201069355 10.7037189946 0.7104229176 1
59.4825947285 108.6201069355 10.1211030062 1.0328348228 1
62.9308507442 108.6201069355 10.4903420548 0.1117068872 1
66.37910676 108.6201069355 9.4151332916 0.1955298719 1
69.8273627758 108.6201069355 10.7221826598 0.230504644 1
73.2756187916 108.6201069355 10.5148346719 -2.1416823971 1
76.7238748074 108.6201069355 9.4761764297 -0.6215643879 1
80.1721308231 108.6201069355 10.0902388831 0.5474356838 1
83.6203868389 108.6201069355 10.4862999166 -0.2088552258 1
87.0686428547 108.6201069355 10.744756974 -0.0580629175 1
90.5168988705 108.6201069355 10.5868395406 -0.5917964379 1
93.9651548862 108.6201069355 10.3187567134 -1.4133781562 1
97.413410902 108.6201069355 10.698888982 -0.3606066857 1
100.8616669178 108.6201069355 11.0061257411 0.4166827894 1
104.3099229336 108.6201069355 10.8911988455 -0.2529076812 1
107.7581789494 108.6201069355 10.6761091353 -0.332962571 1
111.2064349651 108.6201069355 10.5379228172 -0.7450893911 1
114.6546909809 108.6201069355 10.7700032101 -1.107648635 1
118.1029469967 108.6201069355 10.4791747916 -1.5525578811 1
121.5512030125 108.6201069355 10.6493899166 -0.2866150032 1
124.9994590282 108.6201069355 10.2128047348 -1.9254965138 1
128.447715044 108.6201069355 10.4347112713 -1.957285533 1
131.8959710598 108.6201069355 10.3038556107 -1.5547844827 1
135.3442270756 108.6201069355 0 -0 0
-37.0685737133 105.1718509197 8.6579517414 0.732928721 1
-33.6203176975 105.1718509197 9.9438997778 2.7906511118 1
-30.1720616817 105.1718509197 8.8928410777 3.942249436 1
-26.723805666 105.1718509197 8.9387090697 0.7819482107 1
-23.2755496502 105.1718509197 9.2556058541 -0.7824277864 1
-19.8272936344 105.1718509197 -148.9042872804 -202.6995289325 1
-16.3790376186 105.1718509197 -147.3656370952 22.2744423792 1
-12.9307816029 105.1718509197 -73.7250040832 -308.9540513038 1
-9.4825255871 105.1718509197 -105.6571080464 137.3606256685 1
-6.0342695713 105.1718509197 9.0920362783 5.1398870293 1
-2.5860135555 105.1718509197 10.4115888706 3.4268083038 1
0.8622424603 105.1718509197 9.3857421511 3.242445695 1
4.310498476 105.1718509197 9.2754397356 1.7252393955 1
7.7587544918 105.1718509197 9.6374851485 2.6634950353 1
11.2070105076 105.1718509197 9.7470682004 0.8850569904 1
14.6552665234 105.1718509197 9.0494910609 2.6390709291 1
18.1035225391 105.1718509197 8.706388889 1.7236636467 1
21.5517785549 105.1718509197 10.1878667974 1.3937155517 1
25.0000345707 105.1718509197 9.956574279 2.0530979106 1
28.4482905865 105.1718509197 9.296267024 1.485725579 1
31.8965466022 105.1718509197 9.3291179608 2.1412028214 1
35.344802618 105.1718509197 10.4537915339 1.6218223172 1
38.7930586338 105.1718509197 9.3843376794 0.8147991474 1
42.2413146496 105.1718509197 10.3456814645 1.3366802965 1
45.6895706654 105.1718509197 10.7227650017 1.410843256 1
49.1378266811 105.1718509197 10.4471459846 0.3929780467 1
52.5860826969 105.1718509197 9.5069035311 2.0078807714 1
56.0343387127 105.1718509197 10.9181921074 1.2839612228 1
59.4825947285 105.1718509197 10.0862995111 0.0334332787 1
62.9308507442 105.1718509197 10.1364836846 -1.3941951274 1
66.37910676 105.1718509197 9.5904182171 0.681442842 1
69.8273627758 105.1718509197 9.4633991623 0.1325341756 1
73.2756187916 105.1718509197 10.6152030189 0.2108077841 1
76.7238748074 105.1718509197 9.9714411263 0.4060293574 1
80.1721308231 105.1718509197 10.1312768625 0.7074426971 1
83.6203868389 105.1718509197 11.1098168628 -0.1856643143 1
87.0686428547 105.1718509197 10.9192540251 0.062721653 1
90.5168988705 105.1718509197 11.6495793351 -0.7533449445 1
93.9651548862 105.1718509197 10.8821211622 -0.9419552239 1
97.413410902 105.1718509197 11.1305071295 -1.0851428316 1
100.8616669178 105.1718509197 10.5496724224 0.1711742765 1
104.3099229336 105.1718509197 11.189494943 -1.654844531 1
107.7581789494 105.1718509197 10.9858807947 -1.3007806284 1
111.2064349651 105.1718509197 11.6148100954 -1.0972692462 1
114.6546909809 105.1718509197 10.7824721788 0.1092062424 1
118.1029469967 105.1718509197 10.7992230736 -2.6366045396 1
121.5512030125 105.1718509197 10.5070929496 -0.5855619535 1
124.9994590282 105.1718509197 10.189511057 -1.8779157514 1
128.447715044 105.1718509197 10.1545020295 -0.7371078809 1
131.8959710598 105.1718509197 10.5317910991 -1.3624061083 1
135.3442270756 105.1718509197 0 -0 0
-37.0685737133 101.7235949039 9.4620974567 3.0333164259 1
-33.6203176975 101.7235949039 8.1093171182 0.2517429973 1
-30.1720616817 101.7235949039 8.0233360428 0.6433850831 1
-26.723805666 101.7235949039 9.0749428295 -2.5353798074 1
-23.2755496502 101.7235949039 8.7044705861 -2.0215829348 1
-19.8272936344 101.7235949039 -2.2973389735 13.478235809 1
-16.3790376186 101.7235949039 73.5839745662 -160.1017637336 1
-12.9307816029 101.7235949039 73.8721995737 -252.5974642446 1
-9.4825255871 101.7235949039 35.3924825674 0.1335960933 1
-6.0342695713 101.7235949039 7.2336118544 -2.6824725317 1
-2.5860135555 101.7235949039 8.4661899644 0.2931235308 1
0.8622424603 101.7235949039 8.9747800149 1.2699165053 1
4.310498476 101.7235949039 9.022326522 1.8905559971 1
7.7587544918 101.7235949039 9.2339221805 2.185358043 1
11.2070105076 101.7235949039 9.39738899 1.7635026869 1
14.6552665234 101.7235949039 9.4224639491 -0.8830016658 1
18.1035225391 101.7235949039 9.6616009561 3.0429421957 1
21.5517785549 101.7235949039 9.8974151884 2.1153057325 1
25.0000345707 101.7235949039 9.6151506221 3.7940947941 1
28.4482905865 101.7235949039 9.9086509624 0.9701816806 1
31.8965466022 101.7235949039 10.260693796 1.9463238022 1
35.344802618 101.7235949039 9.1764073496 3.3284267704 1
38.7930586338 101.7235949039 9.7854685133 1.5897592548 1
42.2413146496 101.7235949039 9.5172144091 1.7310970704 1
45.6895706654 101.7235949039 9.6905810317 1.9609508617 1
49.1378266811 101.7235949039 10.4576966504 0.0456624596 1
52.5860826969 101.7235949039 9.8518212397 0.7323121237 1
56.0343387127 101.7235949039 10.9047982427 0.1881307037 1
59.4825947285 101.7235949039 11.3491936576 1.1196037726 1
62.9308507442 101.7235949039 10.5205895805 -0.4688537766 1
66.37910676 101.7235949039 10.2960453776 0.3922929386 1
69.8273627758 101.7235949039 11.4473696585 0.5647004097 1
73.2756187916 101.7235949039 10.5945470075 0.7367310714 1
76.7238748074 101.7235949039 11.9478411772 -0.0723816782 1
80.1721308231 101.7235949039 8.8382722119 0.9247247534 1
83.6203868389 101.7235949039 10.6743621094 1.0424605926 1
87.0686428547 101.7235949039 11.0011929623 0.0216836736 1
90.5168988705 101.7235949039 11.1973051762 -0.4151070406 1
93.9651548862 101.7235949039 10.2491154679 -0.6146790508 1
97.413410902 101.7235949039 10.7688385262 0.8837552848 1
100.8616669178 101.7235949039 11.0431558377 -0.6680489773 1
104.3099229336 101.7235949039 11.1455452539 -0.6918907416 1
107.7581789494 101.7235949039 11.4620652287 -0.5022870554 1
111.2064349651 101.7235949039 10.7812389841 0.0336045558 1
114.6546909809 101.7235949039 10.744928251 -0.5919677149 1
118.1029469967 101.7235949039 9.6889710275 -0.1376039761 1
121.5512030125 101.7235949039 10.8081637352 -1.6015773707 1
124.9994590282 101.7235949039 10.1080174401 -1.4438312144 1
128.447715044 101.7235949039 10.3521899922 0.705421628 1
131.8959710598 101.7235949039 10.4867452369 -1.524125892 1
135.3442270756 101.7235949039 0 -0 0
-37.0685737133 98.2753388882 8.3738031275 -1.9211803324 1
-33.6203176975 98.2753388882 9.3348043586 3.0953872262 1
-30.1720616817 98.2753388882 8.802646587 2.0447738464 1
-26.723805666 98.2753388882 9.0798070975 -1.3832333967 1
-23.2755496502 98.2753388882 9.3398399037 2.032750198 1
-19.8272936344 98.2753388882 8.4413547932 9.9783607188 1
-16.3790376186 98.2753388882 42.1212039554 216.4296790158 1
-12.9307816029 98.2753388882 -69.0684951238 -19.8155891544 1
-9.4825255871 98.2753388882 -143.9618484259 82.8256384691 1
-6.0342695713 98.2753388882 7.5497550198 -2.8875254072 1
-2.5860135555 98.2753388882 8.4641688953 -0.8574813865 1
0.8622424603 98.2753388882 9.5017652198 2.1632633045 1
4.310498476 98.2753388882 9.2812288997 0.8687856713 1
7.7587544918 98.2753388882 9.3288781729 1.4158445456 1
11.2070105076 98.2753388882 9.1583204938 1.5804760391 1
14.6552665234 98.2753388882 10.9720073542 1.4152279483 1
18.1035225391 98.2753388882 9.5391036151 3.0308500365 1
21.5517785549 98.2753388882 9.405267734 1.6749524558 1
25.0000345707 98.2753388882 9.5875407628 1.3815206263 1
28.4482905865 98.2753388882 9.6221729808 1.4227298827 1
31.8965466022 98.2753388882 9.836509072 -0.4821106197 1
35.344802618 98.2753388882 9.3103117415 1.2776239722 1
38.7930586338 98.2753388882 10.3386248504 1.252788801 1
42.2413146496 98.2753388882 10.038753004 1.1775296684 1
45.6895706654 98.2753388882 10.0781467239 0.3667726592 1
49.1378266811 98.2753388882 10.1307630314 1.8327328675 1
52.5860826969 98.2753388882 10.5526868983 1.3513416114 1
56.0343387127 98.2753388882 9.8037266461 1.4989824221 1
59.4825947285 98.2753388882 10.7053289988 1.6260357324 1
62.9308507442 98.2753388882 10.5092510403 0.4242189793 1
66.37910676 98.2753388882 10.4439259762 0.1106107142 1
69.8273627758 98.2753388882 11.3791671401 0.5435305672 1
73.2756187916 98.2753388882 10.9263106392 0.7512553646 1
76.7238748074 98.2753388882 10.7440376104 -2.9370587279 1
80.1721308231 98.2753388882 11.1981958168 -3.4738409797 1
83.6203868389 98.2753388882 10.3477710445 -0.1529846545 1
87.0686428547 98.2753388882 11.3994805973 0.0189432409 1
90.5168988705 98.2753388882 10.9721101204 0.196454768 1
93.9651548862 98.2753388882 10.8832858461 0.3994180635 1
97.413410902 98.2753388882 11.0116751173 0.1511691179 1
100.8616669178 98.2753388882 11.0920383057 -0.042682239 1
104.3099229336 98.2753388882 11.4451088015 -0.8486434911 1
107.7581789494 98.2753388882 10.9092514458 0.1786077001 1
111.2064349651 98.2753388882 10.5858118784 -0.789107591 1
114.6546909809 98.2753388882 10.7283143779 -1.0816145245 1
118.1029469967 98.2753388882 10.4654041174 -2.4682049513 1
121.5512030125 98.2753388882 11.3885873774 -1.7700454699 1
124.9994590282 98.2753388882 10.0195014644 -1.1864018193 1
128.447715044 98.2753388882 10.3423586899 -1.9727004668 1
131.8959710598 98.2753388882 10.3713730209 -0.8943402061 1
135.3442270756 98.2753388882 0 -0 0
-37.0685737133 94.8270828724 9.2440617814 0.5570614536 1
-33.6203176975 94.8270828724 9.2760220776 0.296069496 1
-30.1720616817 94.8270828724 10.0158361357 2.0984178161 1
-26.723805666 94.8270828724 8.4188832452 -0.5403790697 1
-23.2755496502 94.8270828724 9.2308734491 0.073203808 1
-19.8272936344 94.8270828724 7.8984408233 0.5297256376 1
-16.3790376186 94.8270828724 109.884910568 111.4110917845 1
-12.9307816029 94.8270828724 77.8158877368 -38.4366922132 1
-9.4825255871 94.8270828724 54.06757215 -41.1284137052 1
-6.0342695713 94.8270828724 5.6326510811 157.4884528717 1
-2.5860135555 94.8270828724 9.163698593 1.3822399899 1
0.8622424603 94.8270828724 9.9355757135 1.7414079484 1
4.310498476 94.8270828724 9.8828908952 1.4018340835 1
7.7587544918 94.8270828724 9.03390485 1.9795858039 1
11.2070105076 94.8270828724 9.1246474273 1.5322444238 1
14.6552665234 94.8270828724 10.5859489 2.34735187 1
18.1035225391 94.8270828724 8.9471359002 2.4223027038 1
21.5517785549 94.8270828724 9.5091986435 2.5269872323 1
25.0000345707 94.8270828724 9.0492170177 2.0481993872 1
28.4482905865 94.8270828724 8.8540639552 1.3743612459 1
31.8965466022 94.8270828724 10.6466494839 2.2034791541 1
35.344802618 94.8270828724 9.3121615336 1.5327925104 1
38.7930586338 94.8270828724 10.4518047202 1.2633394668 1
42.2413146496 94.8270828724 10.6454505446 1.1966784418 1
45.6895706654 94.8270828724 10.6477114016 1.6578932623 1
49.1378266811 94.8270828724 10.2999847495 1.2956765725 1
52.5860826969 94.8270828724 10.2590495363 0.4248355767 1
56.0343387127 94.8270828724 11.0457249934 2.2942217313 1
59.4825947285 94.8270828724 10.8388565812 -0.0362764776 1
62.9308507442 94.8270828724 10.7291022523 0.8308649341 1
66.37910676 94.8270828724 11.1156745376 1.0744893996 1
69.8273627758 94.8270828724 10.7759636512 0.8693337578 1
73.2756187916 94.8270828724 11.5634269826 1.5463576522 1
76.7238748074 94.8270828724 10.172657396 0.3506041064 1
80.1721308231 94.8270828724 9.3179164422 1.0306082212 1
83.6203868389 94.8270828724 10.7741138591 0.7239880594 1
87.0686428547 94.8270828724 11.2082326515 1.0216333042 1
90.5168988705 94.8270828724 10.8639657957 1.2576188136 1
93.9651548862 94.8270828724 10.8766745523 0.1221547868 1
97.413410902 94.8270828724 10.9891350585 1.1551608867 1
100.8616669178 94.8270828724 11.6468731578 0.2485229889 1
104.3099229336 94.8270828724 10.7860004859 0.2229684542 1
107.7581789494 94.8270828724 11.3272701961 -0.7018248101 1
111.2064349651 94.8270828724 11.0033167976 -1.5195014119 1
114.6546909809 94.8270828724 10.9634092467 -1.8737023361 1
118.1029469967 94.8270828724 10.247950784 -1.1035037306 1
121.5512030125 94.8270828724 11.1488680285 -1.0612325565 1
124.9994590282 94.8270828724 10.7958660435 -0.9867955537 1
128.447715044 94.8270828724 10.8110754449 -1.5730426154 1
131.8959710598 94.8270828724 9.9270461168 -2.5142099649 1
135.3442270756 94.8270828724 0 -0 0
-37.0685737133 91.3788268566 8.4340583912 -0.9313703027 1
-33.6203176975 91.3788268566 9.0227375869 2.5550766673 1
-30.1720616817 91.3788268566 9.4063639071 1.7581930985 1
-26.723805666 91.3788268566 8.7578062572 0.5273962698 1
-23.2755496502 91.3788268566 8.2547313275 1.0203315987 1
-19.8272936344 91.3788268566 7.7975243897 -1.5828054068 1
-16.3790376186 91.3788268566 93.9305910638 78.705877506 1
-12.9307816029 91.3788268566 -180.7512665534 -138.9053390611 1
-9.4825255871 91.3788268566 -7.679069187 149.3063430104 1
-6.0342695713 91.3788268566 6.1468247632 -3.9916457351 1
-2.5860135555 91.3788268566 7.2935245639 -2.7075132353 1
0.8622424603 91.3788268566 9.3350784019 2.4552906623 1
4.310498476 91.3788268566 9.7052423465 1.6839273728 1
7.7587544918 91.3788268566 9.3244934807 0.2944937472 1
11.2070105076 91.3788268566 9.2572158583 2.4096967135 1
14.6552665234 91.3788268566 9.2501934995 1.817934531 1
18.1035225391 91.3788268566 9.3832415063 2.005003317 1
21.5517785549 91.3788268566 10.5164446761 2.3586561548 1
25.0000345707 91.3788268566 10.8931171484 1.8281083874 1
28.4482905865 91.3788268566 10.596259778 3.0281781146 1
31.8965466022 91.3788268566 9.5244080449 1.0243737369 1
35.344802618 91.3788268566 10.2563776145 2.4310035776 1
38.7930586338 91.3788268566 10.9273383015 1.7625435354 1
42.2413146496 91.3788268566 10.1107578728 1.7277057849 1
45.6895706654 91.3788268566 9.8591176417 2.2144751402 1
49.1378266811 91.3788268566 10.634077749 1.0607529807 1
52.5860826969 91.3788268566 10.2283224349 1.6681013741 1
56.0343387127 91.3788268566 10.2965592087 0.4104825605 1
59.4825947285 91.3788268566 10.5716986501 1.7562405403 1
62.9308507442 91.3788268566 10.5451849638 1.3440452093 1
66.37910676 91.3788268566 11.2339927187 1.678240975 1
69.8273627758 91.3788268566 10.9375464132 1.3622005759 1
73.2756187916 91.3788268566 11.1594186943 1.8952489881 1
76.7238748074 91.3788268566 10.9308666086 0.2531817245 1
80.1721308231 91.3788268566 11.4956355291 -1.2635792547 1
83.6203868389 91.3788268566 11.5055010868 0.8109967971 1
87.0686428547 91.3788268566 11.7589568545 0.6798328378 1
90.5168988705 91.3788268566 11.3334361697 -0.7091554675 1
93.9651548862 91.3788268566 11.2749279319 -0.3216925416 1
97.413410902 91.3788268566 11.5084127965 0.8628252302 1
100.8616669178 91.3788268566 11.3738232963 -0.0800206343 1
104.3099229336 91.3788268566 11.4783365478 -0.3894154842 1
107.7581789494 91.3788268566 10.7621929769 -0.7328944656 1
111.2064349651 91.3788268566 11.0485339369 -1.2681009686 1
114.6546909809 91.3788268566 10.845296598 -1.2914289018 1
118.1029469967 91.3788268566 10.6095851319 -1.0822996327 1
121.5512030125 91.3788268566 10.7508886921 -1.6442253543 1
124.9994590282 91.3788268566 11.0730608094 -0.8053446547 1
128.447715044 91.3788268566 10.556352227 -1.4956939029 1
131.8959710598 91.3788268566 10.1601884273 -1.305610641 1
135.3442270756 91.3788268566 0 -0 0
-37.0685737133 87.9305708408 9.4864530522 1.9560865937 1
-33.6203176975 87.9305708408 9.0391459275 3.1086098139 1
-30.1720616817 87.9305708408 9.2951023401 1.3069808573 1
-26.723805666 87.9305708408 9.162944974 1.4712355412 1
-23.2755496502 87.9305708408 9.1445498196 0.6779487903 1
-19.8272936344 87.9305708408 8.9129832579 0.8781373978 1
-16.3790376186 87.9305708408 -32.7912296093 -40.427753579 1
-12.9307816029 87.9305708408 -76.6625423868 -15.5435971558 1
-9.4825255871 87.9305708408 -31.6674124215 -34.383660786 1
-6.0342695713 87.9305708408 7.7977299222 6.5387066368 1
-2.5860135555 87.9305708408 8.8212815293 2.2339322123 1
0.8622424603 87.9305708408 9.8735049133 3.1062804461 1
4.310498476 87.9305708408 8.8047361669 2.2335211474 1
7.7587544918 87.9305708408 9.7745752934 0.7495425942 1
11.2070105076 87.9305708408 9.5999754761 1.0604446821 1
14.6552665234 87.9305708408 9.4266431089 0.8164091516 1
18.1035225391 87.9305708408 9.4100977466 2.038368085 1
21.5517785549 87.9305708408 9.3340164842 1.4115283642 1
25.0000345707 87.9305708408 10.6618931407 2.6061514815 1
28.4482905865 87.9305708408 10.6902223636 1.6215825293 1
31.8965466022 87.9305708408 9.3315158394 1.8300952011 1
35.344802618 87.9305708408 10.2153396351 2.5201361506 1
38.7930586338 87.9305708408 9.8291784146 0.5824447113 1
42.2413146496 87.9305708408 10.2802536342 2.0180203723 1
45.6895706654 87.9305708408 10.3800053839 1.5701994165 1
49.1378266811 87.9305708408 10.6618931407 2.2638029285 1
52.5860826969 87.9305708408 10.1286049406 2.4118205488 1
56.0343387127 87.9305708408 10.7531152937 1.6693003134 1
59.4825947285 87.9305708408 10.3997707546 0.6352322959 1
62.9308507442 87.9305708408 10.9188772156 -0.1864864441 1
66.37910676 87.9305708408 10.935765132 -0.0593988784 1
69.8273627758 87.9305708408 11.3349776631 0.4488828735 1
73.2756187916 87.9305708408 10.754656787 0.9674755033 1
76.7238748074 87.9305708408 10.3842187991 0.3698899014 1
80.1721308231 87.9305708408 9.92605271 0.7697532852 1
83.6203868389 87.9305708408 9.9187220525 0.2746941211 1
87.0686428547 87.9305708408 11.0520279886 1.1272427287 1
90.5168988705 87.9305708408 11.4181155396 -0.1271560765 1
93.9651548862 87.9305708408 12.530491421 0.5512380342 1
97.413410902 87.9305708408 11.5719565793 0.1271903319 1
100.8616669178 87.9305708408 12.1232288689 0.5600074188 1
104.3099229336 87.9305708408 11.8651143656 -0.0929691788 1
107.7581789494 87.9305708408 11.9444156363 -1.7400034766 1
111.2064349651 87.9305708408 11.5318434959 -1.5278939869 1
114.6546909809 87.9305708408 11.3505296185 -1.6882778097 1
118.1029469967 87.9305708408 11.4109904146 -1.3710384713 1
121.5512030125 87.9305708408 10.6443201162 -2.1669286332 1
124.9994590282 87.9305708408 10.4732143505 -2.6541775642 1
128.447715044 87.9305708408 10.0368004458 -1.7955314938 1
131.8959710598 87.9305708408 9.6394034513 -1.5017571102 1
135.3442270756 87.9305708408 0 -0 0
-37.0685737133 84.4823148251 9.801705577 3.2953703012 1
-33.6203176975 84.4823148251 9.2186785237 0.2933975741 1
-30.1720616817 84.4823148251 9.6928418886 2.5929974046 1
-26.723805666 84.4823148251 9.0266427034 2.3785928025 1
-23.2755496502 84.4823148251 9.103580351 0.0729640202 1
-19.8272936344 84.4823148251 8.3138219072 1.6256931783 1
-16.3790376186 84.4823148251 30.4677880145 140.6881617983 1
-12.9307816029 84.4823148251 -176.1098984846 32.5907327032 1
-9.4825255871 84.4823148251 185.6930202997 144.0964721815 1
-6.0342695713 84.4823148251 2.2043697947 11.1650365813 1
-2.5860135555 84.4823148251 6.5659396866 8.5561446672 1
0.8622424603 84.4823148251 9.1654456188 2.4839624392 1