TITLE = "B00017"
VARIABLES = "x", "y", "Vx", "Vy", "isValid"
ZONE T="Frame 0", I=51, J=39, F=POINT
-37.0685737133 118.9648749828 0 -0 0
-33.6203176975 118.9648749828 9.5809729874 0.2869084 1
-30.1720616817 118.9648749828 9.583976489 0.2676048729 1
-26.723805666 118.9648749828 9.7035903946 0.0981235223 1
-23.2755496502 118.9648749828 0.6216700353 -4.4360897402 1
-19.8272936344 118.9648749828 -2.3102216784 8.1138254558 1
-16.3790376186 118.9648749828 12.4350778447 -8.5628900604 1
-12.9307816029 118.9648749828 -17.8260454368 -7.1242237266 1
-9.4825255871 118.9648749828 6.0305161355 10.0813985665 1
-6.0342695713 118.9648749828 -0.1899111908 -6.4761524732 1
-2.5860135555 118.9648749828 9.5589235582 0.4138529323 1
0.8622424603 118.9648749828 9.7129626351 0.4069498112 1
4.310498476 118.9648749828 9.6152611377 0.426732912 1
7.7587544918 118.9648749828 9.7399393417 0.371562752 1
11.2070105076 118.9648749828 9.6876849898 0.3450985042 1
14.6552665234 118.9648749828 9.8484874263 0.3604256801 1
18.1035225391 118.9648749828 9.7942490095 0.2800463852 1
21.5517785549 118.9648749828 9.7873595905 0.3872407018 1
25.0000345707 118.9648749828 9.7693879081 0.4512377586 1
28.4482905865 118.9648749828 9.8118973222 0.4008386719 1
31.8965466022 118.9648749828 9.922769284 0.4901407783 1
35.344802618 118.9648749828 10.0049545165 0.2686708967 1
38.7930586338 118.9648749828 9.9112101873 0.3513220008 1
42.2413146496 118.9648749828 10.0243183329 0.3597762003 1
45.6895706654 118.9648749828 9.8888757543 0.3009475779 1
49.1378266811 118.9648749828 9.852186995 0.275269831 1
52.5860826969 118.9648749828 9.8133168603 0.2244953066 1
56.0343387127 118.9648749828 9.905932136 0.3646130438 1
59.4825947285 118.9648749828 9.7298600724 0.341577063 1
62.9308507442 118.9648749828 9.8483120394 0.2628968292 1
66.37910676 118.9648749828 9.9864347499 0.2467749312 1
69.8273627758 118.9648749828 9.9179571043 0.3248714552 1
73.2756187916 118.9648749828 1.5744432437 -6.4629491237 1
76.7238748074 118.9648749828 14.5855357061 -6.047545113 1
80.1721308231 118.9648749828 10.0656658083 0.4235430617 1
83.6203868389 118.9648749828 9.9417658839 0.302997413 1
87.0686428547 118.9648749828 9.9769035648 0.3007420463 1
90.5168988705 118.9648749828 10.0370338873 0.3594172051 1
93.9651548862 118.9648749828 9.9243916134 0.2977248425 1
97.413410902 118.9648749828 10.0460608348 0.3427883291 1
100.8616669178 118.9648749828 9.8811148814 0.2974179154 1
104.3099229336 118.9648749828 9.9201275179 0.2841734596 1
107.7581789494 118.9648749828 9.9004951403 0.3098046193 1
111.2064349651 118.9648749828 10.0177632453 0.3038387223 1
114.6546909809 118.9648749828 10.0126770235 0.3318540485 1
118.1029469967 118.9648749828 9.9624067366 0.2896131957 1
121.5512030125 118.9648749828 9.9780271375 0.3773477812 1
124.9994590282 118.9648749828 10.0025429458 0.2928605949 1
128.447715044 118.9648749828 9.9554899134 0.3158554694 1
131.8959710598 118.9648749828 9.973593136 0.3469373269 1
135.3442270756 118.9648749828 0 -0 0
-37.0685737133 115.5166189671 9.5909097547 0.1804814013 1
-33.6203176975 115.5166189671 9.5717268061 0.2953653399 1
-30.1720616817 115.5166189671 9.6590695114 0.1331378843 1
-26.723805666 115.5166189671 9.6517142208 0.3559396106 1
-23.2755496502 115.5166189671 -0.1668998738 1.4622832839 1
-19.8272936344 115.5166189671 -14.6638213192 -2.8699116069 1
-16.3790376186 115.5166189671 -2.5762014815 3.1564199054 1
-12.9307816029 115.5166189671 -8.4007667408 -7.261272192 1
-9.4825255871 115.5166189671 -14.9487429138 -14.0752309085 1
-6.0342695713 115.5166189671 0.146420706 -7.6087027946 1
-2.5860135555 115.5166189671 9.6256473341 0.4339566624 1
0.8622424603 115.5166189671 9.6790581438 0.4222386212 1
4.310498476 115.5166189671 9.6639419803 0.4435508771 1
7.7587544918 115.5166189671 9.7228884408 0.3379350431 1
11.2070105076 115.5166189671 9.8338316536 0.3254990116 1
14.6552665234 115.5166189671 9.7162511406 0.3630537441 1
18.1035225391 115.5166189671 9.6982794582 0.3593980222 1
21.5517785549 115.5166189671 9.7461984637 0.3205196663 1
25.0000345707 115.5166189671 9.8542368301 0.3930366927 1
28.4482905865 115.5166189671 9.6257788744 0.4147846755 1
31.8965466022 115.5166189671 9.9151618747 0.3093771136 1
35.344802618 115.5166189671 9.8330917399 0.268314642 1
38.7930586338 115.5166189671 9.9297025497 0.3411358551 1
42.2413146496 115.5166189671 9.9528919941 0.2811973621 1
45.6895706654 115.5166189671 10.0075359933 0.3468386717 1
49.1378266811 115.5166189671 9.9811512177 0.299640397 1
52.5860826969 115.5166189671 9.9253836459 0.3665724449 1
56.0343387127 115.5166189671 9.9216073454 0.3216459794 1
59.4825947285 115.5166189671 9.8687226966 0.246676276 1
62.9308507442 115.5166189671 9.8791582207 0.2671746267 1
66.37910676 115.5166189671 9.9087712124 0.2520666845 1
69.8273627758 115.5166189671 9.8477146275 0.3795839649 1
73.2756187916 115.5166189671 1.8231309889 -5.8420518872 1
76.7238748074 115.5166189671 -11.8275017957 1.5223423554 1
80.1721308231 115.5166189671 9.6480859031 0.2241938603 1
83.6203868389 115.5166189671 9.9780490609 0.2779746268 1
87.0686428547 115.5166189671 10.0306596676 0.3071573724 1
90.5168988705 115.5166189671 9.9653883149 0.2886814525 1
93.9651548862 115.5166189671 9.8804023719 0.3752623206 1
97.413410902 115.5166189671 9.957243783 0.2810521198 1
100.8616669178 115.5166189671 9.9292476398 0.3019039849 1
104.3099229336 115.5166189671 9.8771796365 0.2805286994 1
107.7581789494 115.5166189671 9.9302999615 0.337173206 1
111.2064349651 115.5166189671 10.0513169627 0.2965875677 1
114.6546909809 115.5166189671 9.9448461174 0.3295685372 1
118.1029469967 115.5166189671 9.9422591597 0.3457068777 1
121.5512030125 115.5166189671 9.9084259193 0.2979577783 1
124.9994590282 115.5166189671 9.9664515983 0.3374472482 1
128.447715044 115.5166189671 9.9133148308 0.3292835333 1
131.8959710598 115.5166189671 9.9428675333 0.312613551 1
135.3442270756 115.5166189671 0 -0 0
-37.0685737133 112.0683629513 9.6520375905 0.1254400411 1
-33.6203176975 112.0683629513 9.5362602747 0.3286888619 1
-30.1720616817 112.0683629513 9.5844423606 0.1978611527 1
-26.723805666 112.0683629513 9.5470082067 0.3416839394 1
-23.2755496502 112.0683629513 0.37512804 8.1897296428 1
-19.8272936344 112.0683629513 -5.9342670613 -1.2822129457 1
-16.3790376186 112.0683629513 8.6753733899 -13.2835232171 1
-12.9307816029 112.0683629513 -3.1151601235 -2.9152107697 1
-9.4825255871 112.0683629513 4.2990796408 9.4716274401 1
-6.0342695713 112.0683629513 1.0231170808 -7.618639562 1
-2.5860135555 112.0683629513 9.7504187124 0.3700390778 1
0.8622424603 112.0683629513 9.6675154896 0.3805842186 1
4.310498476 112.0683629513 9.6274560121 0.4576476039 1
7.7587544918 112.0683629513 9.7174021175 0.3856457766 1
11.2070105076 112.0683629513 9.6581487298 0.3691347388 1
14.6552665234 112.0683629513 9.7233104657 0.498570314 1
18.1035225391 112.0683629513 9.7250314502 0.311624259 1
21.5517785549 112.0683629513 9.6379792296 0.3740510545 1
25.0000345707 112.0683629513 9.8021194992 0.3401520439 1
28.4482905865 112.0683629513 9.7943531455 0.3731193112 1
31.8965466022 112.0683629513 9.8821288373 0.4336579565 1
35.344802618 112.0683629513 9.7418521557 0.3348383672 1
38.7930586338 112.0683629513 9.8229960281 0.4164261878 1
42.2413146496 112.0683629513 9.9344763635 0.3366854111 1
45.6895706654 112.0683629513 9.8932165815 0.3111501661 1
49.1378266811 112.0683629513 9.9723818698 0.3205689939 1
52.5860826969 112.0683629513 9.9147727349 0.3358358805 1
56.0343387127 112.0683629513 9.8187648177 0.2732939873 1
59.4825947285 112.0683629513 9.8112889486 0.2612991636 1
62.9308507442 112.0683629513 9.8478242444 0.3471894456 1
66.37910676 112.0683629513 9.9133477158 0.3817598594 1
69.8273627758 112.0683629513 10.0440329231 0.3148853602 1
73.2756187916 112.0683629513 5.7619603365 -28.3023304803 1
76.7238748074 112.0683629513 0.2438536421 -3.5823005464 1
80.1721308231 112.0683629513 9.7056566722 0.3442873395 1
83.6203868389 112.0683629513 9.8701203115 0.2534067505 1
87.0686428547 112.0683629513 9.9647360946 0.2763385953 1
90.5168988705 112.0683629513 9.9451475637 0.2834773926 1
93.9651548862 112.0683629513 9.9753853715 0.3556765301 1
97.413410902 112.0683629513 9.8728662135 0.4282538458 1
100.8616669178 112.0683629513 9.8461854725 0.284943518 1
104.3099229336 112.0683629513 9.9443309182 0.3625029194 1
107.7581789494 112.0683629513 9.9791287869 0.3566082734 1
111.2064349651 112.0683629513 9.9156880356 0.3118270502 1
114.6546909809 112.0683629513 9.9653389873 0.352604518 1
118.1029469967 112.0683629513 9.935188873 0.3647391031 1
121.5512030125 112.0683629513 9.9112759574 0.3262389254 1
124.9994590282 112.0683629513 9.9119281776 0.3603434675 1
128.447715044 112.0683629513 9.9468849908 0.3096182706 1
131.8959710598 112.0683629513 10.0766823016 0.2946089836 1
135.3442270756 112.0683629513 0 -0 0
-37.0685737133 108.6201069355 9.5070912312 0.1295808175 1
-33.6203176975 108.6201069355 9.4901061004 0.1789029187 1
-30.1720616817 108.6201069355 9.6246388591 0.3031426553 1
-26.723805666 108.6201069355 9.6446877808 0.2502634874 1
-23.2755496502 108.6201069355 9.4063971937 0.1096771382 1
-19.8272936344 108.6201069355 1.4619708759 -8.0540157626 1
-16.3790376186 108.6201069355 -6.7417979449 10.4121975528 1
-12.9307816029 108.6201069355 -9.0518414959 11.0926825084 1
-9.4825255871 108.6201069355 -2.803727694 3.3066607585 1
-6.0342695713 108.6201069355 0.6341252498 11.0187514247 1
-2.5860135555 108.6201069355 9.4609754228 0.3941931504 1
0.8622424603 108.6201069355 9.6108271362 0.3929161142 1
4.310498476 108.6201069355 9.5643824773 0.4046505978 1
7.7587544918 108.6201069355 9.6426763116 0.4409694003 1
11.2070105076 108.6201069355 9.876362991 0.4006029957 1
14.6552665234 108.6201069355 9.8672702734 0.4157547846 1
18.1035225391 108.6201069355 9.7130503286 0.403148847 1
21.5517785549 108.6201069355 9.6757806 0.4218083751 1
25.0000345707 108.6201069355 9.736102752 0.4253243355 1
28.4482905865 108.6201069355 9.9157209206 0.3966650104 1
31.8965466022 108.6201069355 9.8410828082 0.4163357539 1
35.344802618 108.6201069355 9.8844198294 0.3415688417 1
38.7930586338 108.6201069355 9.895776135 0.3419853857 1
42.2413146496 108.6201069355 9.8335028031 0.422419489 1
45.6895706654 108.6201069355 9.8897198041 0.3162007624 1
49.1378266811 108.6201069355 9.9411684721 0.3520893188 1
52.5860826969 108.6201069355 9.8977711616 0.2480081207 1
56.0343387127 108.6201069355 9.7992913845 0.3839878218 1
59.4825947285 108.6201069355 9.7828269338 0.3153156064 1
62.9308507442 108.6201069355 9.7678313489 0.4091613312 1
66.37910676 108.6201069355 9.9311494921 0.3103718865 1
69.8273627758 108.6201069355 9.879388416 0.4864932777 1
73.2756187916 108.6201069355 9.81663277 0.4333510293 1
76.7238748074 108.6201069355 2.8256538042 -8.1102711295 1
80.1721308231 108.6201069355 9.7904617473 0.1992916526 1
83.6203868389 108.6201069355 9.9058882893 0.3070970831 1
87.0686428547 108.6201069355 9.9069351302 0.3113940636 1
90.5168988705 108.6201069355 9.9466712379 0.3171873141 1
93.9651548862 108.6201069355 9.9141479188 0.3017724447 1
97.413410902 108.6201069355 9.8865683196 0.2892816048 1
100.8616669178 108.6201069355 10.057186945 0.2999993922 1
104.3099229336 108.6201069355 9.9494006975 0.3423800064 1
107.7581789494 108.6201069355 9.9002649449 0.3821489992 1
111.2064349651 108.6201069355 9.9582138921 0.3401218993 1
114.6546909809 108.6201069355 9.9552980839 0.3587704657 1
118.1029469967 108.6201069355 9.948753958 0.3896851575 1
121.5512030125 108.6201069355 9.9465671019 0.3464577532 1
124.9994590282 108.6201069355 10.0255076757 0.3594062434 1
128.447715044 108.6201069355 9.9719543641 0.3335120033 1
131.8959710598 108.6201069355 9.9531769979 0.3152991638 1
135.3442270756 108.6201069355 0 -0 0
-37.0685737133 105.1718509197 9.5719076739 0.2237362099 1
-33.6203176975 105.1718509197 9.5562763113 0.2466269484 1
-30.1720616817 105.1718509197 9.5620421575 0.2721704146 1
-26.723805666 105.1718509197 9.5861633451 0.345819235 1
-23.2755496502 105.1718509197 9.5585453801 0.2752835331 1
-19.8272936344 105.1718509197 8.4393792758 -4.1210838015 1
-16.3790376186 105.1718509197 -0.3459809199 13.2334036533 1
-12.9307816029 105.1718509197 6.0718197642 6.1796279351 1
-9.4825255871 105.1718509197 14.6652600404 5.6104479279 1
-6.0342695713 105.1718509197 0.4096463857 -1.0155617395 1
-2.5860135555 105.1718509197 9.5223389349 0.4935443815 1
0.8622424603 105.1718509197 9.69282602 0.3298480601 1
4.310498476 105.1718509197 9.5602499221 0.416752298 1
7.7587544918 105.1718509197 9.622276616 0.3449313385 1
11.2070105076 105.1718509197 9.7062157181 0.4339922879 1
14.6552665234 105.1718509197 9.7349353325 0.4503197175 1
18.1035225391 105.1718509197 9.6872026757 0.4151409303 1
21.5517785549 105.1718509197 9.8957651733 0.4527696541 1
25.0000345707 105.1718509197 9.7347709072 0.5091867058 1
28.4482905865 105.1718509197 9.7278760074 0.4464858682 1
31.8965466022 105.1718509197 9.8740884414 0.3647199202 1
35.344802618 105.1718509197 9.9547664422 0.3525387478 1
38.7930586338 105.1718509197 9.8938742826 0.3823024628 1
42.2413146496 105.1718509197 9.938734978 0.3888548099 1
45.6895706654 105.1718509197 9.9027258432 0.2663196153 1
49.1378266811 105.1718509197 9.9077791799 0.2876866796 1
52.5860826969 105.1718509197 9.9655801444 0.3013175348 1
56.0343387127 105.1718509197 9.9143726334 0.2071511807 1
59.4825947285 105.1718509197 9.8841622298 0.34006161 1
62.9308507442 105.1718509197 9.8747022957 0.2160904347 1
66.37910676 105.1718509197 9.8854940745 0.2972507497 1
69.8273627758 105.1718509197 9.8727511158 0.2983606203 1
73.2756187916 105.1718509197 9.9190313495 0.328390156 1
76.7238748074 105.1718509197 2.2757992474 -9.0949263983 1
80.1721308231 105.1718509197 -0.0625555953 6.8328785846 1
83.6203868389 105.1718509197 9.9140602254 0.3309606711 1
87.0686428547 105.1718509197 9.8981767439 0.298579854 1
90.5168988705 105.1718509197 9.9440459144 0.3695375807 1
93.9651548862 105.1718509197 9.9104154651 0.2455252991 1
97.413410902 105.1718509197 9.8888483501 0.2883800062 1
100.8616669178 105.1718509197 9.8432203367 0.3201661519 1
104.3099229336 105.1718509197 9.9463971958 0.2497811732 1
107.7581789494 105.1718509197 9.9152057214 0.3190727239 1
111.2064349651 105.1718509197 9.9398749933 0.3262909934 1
114.6546909809 105.1718509197 9.9960152625 0.3208485168 1
118.1029469967 105.1718509197 9.9473563432 0.3857362105 1
121.5512030125 105.1718509197 9.9369317809 0.3624919577 1
124.9994590282 105.1718509197 10.0519143746 0.3638046195 1
128.447715044 105.1718509197 9.9832339379 0.3353289026 1
131.8959710598 105.1718509197 9.8627595401 0.4028665836 1
135.3442270756 105.1718509197 0 -0 0
-37.0685737133 101.7235949039 9.6579240153 0.1232449637 1
-33.6203176975 101.7235949039 9.49537319 0.3634291818 1
-30.1720616817 101.7235949039 9.6104818431 0.323035373 1
-26.723805666 101.7235949039 9.5604033856 0.3194618637 1
-23.2755496502 101.7235949039 9.4877164531 0.3197660504 1
-19.8272936344 101.7235949039 -1.0131885347 -1.5972380675 1
-16.3790376186 101.7235949039 -1.6887188087 -1.0769389536 1
-12.9307816029 101.7235949039 -14.0882835348 -1.8739383984 1
-9.4825255871 101.7235949039 -2.6954728344 2.3513115542 1
-6.0342695713 101.7235949039 0.0414899773 0.8435043929 1
-2.5860135555 101.7235949039 9.6488532211 0.5118586165 1
0.8622424603 101.7235949039 9.6144828581 0.400592034 1
4.310498476 101.7235949039 9.6832509882 0.4791133233 1
7.7587544918 101.7235949039 9.6885838479 0.4677350944 1
11.2070105076 101.7235949039 9.7124145509 0.3556737897 1
14.6552665234 101.7235949039 9.8383095019 0.4506430872 1
18.1035225391 101.7235949039 9.735023026 0.479299672 1
21.5517785549 101.7235949039 9.8706409915 0.5092552163 1
25.0000345707 101.7235949039 9.7750496184 0.3602530336 1
28.4482905865 101.7235949039 9.8775030062 0.3885149977 1
31.8965466022 101.7235949039 9.8751736482 0.4077993418 1
35.344802618 101.7235949039 9.8607042241 0.4010250206 1
38.7930586338 101.7235949039 9.9785971452 0.4440468933 1
42.2413146496 101.7235949039 9.9313577641 0.3735413361 1
45.6895706654 101.7235949039 9.9393871983 0.3374034014 1
49.1378266811 101.7235949039 9.8783196518 0.2445524495 1
52.5860826969 101.7235949039 9.952722088 0.3231943174 1
56.0343387127 101.7235949039 9.9514724559 0.2982153779 1
59.4825947285 101.7235949039 9.9828886448 0.3235998997 1
62.9308507442 101.7235949039 9.9228240924 0.2573118508 1
66.37910676 101.7235949039 9.8667550742 0.3052144137 1
69.8273627758 101.7235949039 9.8185291415 0.2737077909 1
73.2756187916 101.7235949039 9.8607316284 0.2531436701 1
76.7238748074 101.7235949039 -2.5770482716 9.6307774027 1
80.1721308231 101.7235949039 2.6722450241 -0.5299234732 1
83.6203868389 101.7235949039 9.9474769218 0.3157376312 1
87.0686428547 101.7235949039 9.9594799667 0.2128539973 1
90.5168988705 101.7235949039 9.946808259 0.2171098714 1
93.9651548862 101.7235949039 9.9371236104 0.2750780016 1
97.413410902 101.7235949039 9.9472083605 0.280175185 1
100.8616669178 101.7235949039 9.8706903191 0.319431719 1
104.3099229336 101.7235949039 9.8888209459 0.2952173571 1
107.7581789494 101.7235949039 9.8957870966 0.3046224828 1
111.2064349651 101.7235949039 9.9525412202 0.3747717852 1
114.6546909809 101.7235949039 9.9738123697 0.3362962713 1
118.1029469967 101.7235949039 9.946495851 0.3800196919 1
121.5512030125 101.7235949039 10.0218519538 0.318214972 1
124.9994590282 101.7235949039 9.9869992766 0.368726416 1
128.447715044 101.7235949039 9.9487101113 0.3018519169 1
131.8959710598 101.7235949039 9.9894327707 0.3898687658 1
135.3442270756 101.7235949039 0 -0 0
-37.0685737133 98.2753388882 9.6165765399 0.1079890387 1
-33.6203176975 98.2753388882 9.5951409651 0.223456687 1
-30.1720616817 98.2753388882 9.6173054919 0.1942465371 1
-26.723805666 98.2753388882 9.5942421069 0.229455469 1
-23.2755496502 98.2753388882 9.5662075978 0.3505738658 1
-19.8272936344 98.2753388882 -0.0561813755 2.0967373842 1
-16.3790376186 98.2753388882 8.3538288061 8.8517715636 1
-12.9307816029 98.2753388882 -14.7660472521 -14.1116401448 1
-9.4825255871 98.2753388882 -5.615314916 4.7685987494 1
-6.0342695713 98.2753388882 -0.6078007635 2.3469076973 1
-2.5860135555 98.2753388882 -0.7659258085 2.7500538039 1
0.8622424603 98.2753388882 9.5960781891 0.3567124094 1
4.310498476 98.2753388882 9.6577321858 0.4720896237 1
7.7587544918 98.2753388882 9.7349682176 0.4390565863 1
11.2070105076 98.2753388882 9.7909824274 0.4646329376 1
14.6552665234 98.2753388882 9.8615647164 0.3476059896 1
18.1035225391 98.2753388882 9.8265256906 0.4717936582 1
21.5517785549 98.2753388882 9.8039336581 0.4570118261 1
25.0000345707 98.2753388882 9.9140437828 0.4444990628 1
28.4482905865 98.2753388882 9.9240408395 0.3929983268 1
31.8965466022 98.2753388882 9.951713613 0.3802279639 1
35.344802618 98.2753388882 9.8424968655 0.3720286236 1
38.7930586338 98.2753388882 9.9202371348 0.3923762512 1
42.2413146496 98.2753388882 9.9023202608 0.347855368 1
45.6895706654 98.2753388882 9.9463917149 0.3132794734 1
49.1378266811 98.2753388882 9.9008404334 0.2298747535 1
52.5860826969 98.2753388882 9.9750126742 0.2804190825 1
56.0343387127 98.2753388882 9.9513025498 0.2781801584 1
59.4825947285 98.2753388882 9.9748263256 0.2993773165 1
62.9308507442 98.2753388882 9.959748528 0.3068422239 1
66.37910676 98.2753388882 9.8357773527 0.324285005 1
69.8273627758 98.2753388882 9.898938581 0.2706741446 1
73.2756187916 98.2753388882 9.8671935416 0.2706741446 1
76.7238748074 98.2753388882 3.9732161531 -17.7852515264 1
80.1721308231 98.2753388882 2.6724368536 -11.5824889554 1
83.6203868389 98.2753388882 9.8881687256 0.2689504197 1
87.0686428547 98.2753388882 9.9245286344 0.2327439745 1
90.5168988705 98.2753388882 9.9593539073 0.2627543273 1
93.9651548862 98.2753388882 9.903739799 0.2717593514 1
97.413410902 98.2753388882 9.9459148817 0.3043648832 1
100.8616669178 98.2753388882 9.92534528 0.3402123332 1
104.3099229336 98.2753388882 9.9298231282 0.2721320487 1
107.7581789494 98.2753388882 9.9072804232 0.2911341295 1
111.2064349651 98.2753388882 9.9182421081 0.3307935054 1
114.6546909809 98.2753388882 9.9726339886 0.4247077408 1
118.1029469967 98.2753388882 9.9373702483 0.3521194634 1
121.5512030125 98.2753388882 9.9897396979 0.3435803109 1
124.9994590282 98.2753388882 9.9851796369 0.4358256297 1
128.447715044 98.2753388882 9.9559831892 0.337017002 1
131.8959710598 98.2753388882 10.0607494926 0.3719053046 1
135.3442270756 98.2753388882 0 -0 0
-37.0685737133 94.8270828724 9.5604527132 0.0316683077 1
-33.6203176975 94.8270828724 9.6441725816 0.2043395085 1
-30.1720616817 94.8270828724 9.5471945554 0.1433596555 1
-26.723805666 94.8270828724 9.4680785946 0.2727349414 1
-23.2755496502 94.8270828724 9.4630471813 0.3084837363 1
-19.8272936344 94.8270828724 9.2536515956 -0.1376349155 1
-16.3790376186 94.8270828724 -2.5839020651 -13.8905922881 1
-12.9307816029 94.8270828724 -5.5219679479 -7.1617126889 1
-9.4825255871 94.8270828724 9.0610602729 8.9777377656 1
-6.0342695713 94.8270828724 0.152282467 -18.7273535346 1
-2.5860135555 94.8270828724 0.1874530329 -18.8985695718 1
0.8622424603 94.8270828724 9.5944065322 0.500847604 1
4.310498476 94.8270828724 9.7390130793 0.468025579 1
7.7587544918 94.8270828724 9.7902151094 0.5124176624 1
11.2070105076 94.8270828724 9.785222062 0.405881047 1
14.6552665234 94.8270828724 9.7208605291 0.3912636402 1
18.1035225391 94.8270828724 9.811310872 0.5129493042 1
21.5517785549 94.8270828724 9.8920491621 0.4823004332 1
25.0000345707 94.8270828724 9.9253562416 0.4601057617 1
28.4482905865 94.8270828724 9.9323881625 0.4215261117 1
31.8965466022 94.8270828724 9.8914298269 0.3468112675 1
35.344802618 94.8270828724 9.8000203366 0.3863774691 1
38.7930586338 94.8270828724 9.976898084 0.3876216203 1
42.2413146496 94.8270828724 10.0750435297 0.3443805139 1
45.6895706654 94.8270828724 10.0535257423 0.329730222 1
49.1378266811 94.8270828724 10.038020439 0.3155129167 1
52.5860826969 94.8270828724 10.0314543897 0.2960723685 1
56.0343387127 94.8270828724 10.0368310962 0.2983359565 1
59.4825947285 94.8270828724 10.0230412966 0.2871139316 1
62.9308507442 94.8270828724 10.0888059251 0.2165645276 1
66.37910676 94.8270828724 9.9640455085 0.3252879992 1
69.8273627758 94.8270828724 9.931675653 0.2511568647 1
73.2756187916 94.8270828724 9.9649279241 0.3277927442 1
76.7238748074 94.8270828724 10.0770988456 0.2937567126 1
80.1721308231 94.8270828724 -5.0155627696 22.5814353558 1
83.6203868389 94.8270828724 9.7990118616 0.223873231 1
87.0686428547 94.8270828724 9.8936605298 0.3541528559 1
90.5168988705 94.8270828724 9.8454948863 0.2336510539 1
93.9651548862 94.8270828724 9.9054607836 0.2578215691 1
97.413410902 94.8270828724 9.9119062543 0.2281921348 1
100.8616669178 94.8270828724 9.8901637523 0.2748505466 1
104.3099229336 94.8270828724 9.8974423111 0.3236273039 1
107.7581789494 94.8270828724 9.8928767693 0.310355444 1
111.2064349651 94.8270828724 9.8908104917 0.2874866288 1
114.6546909809 94.8270828724 10.0343592362 0.3810035031 1
118.1029469967 94.8270828724 9.8313214278 0.4212356271 1
121.5512030125 94.8270828724 9.9978294213 0.4257381391 1
124.9994590282 94.8270828724 9.8702682942 0.3602968803 1
128.447715044 94.8270828724 9.9045454829 0.3506505976 1
131.8959710598 94.8270828724 9.9215360945 0.3710667357 1
135.3442270756 94.8270828724 0 -0 0
-37.0685737133 91.3788268566 9.4262323626 -0.089071911 1
-33.6203176975 91.3788268566 9.582167811 0.1967156567 1
-30.1720616817 91.3788268566 9.4421761332 0.2248378593 1
-26.723805666 91.3788268566 9.5048824517 0.3025863498 1
-23.2755496502 91.3788268566 9.3835530424 0.2092339008 1
-19.8272936344 91.3788268566 9.4427680642 0.3382036044 1
-16.3790376186 91.3788268566 2.4065173398 -22.8775734945 1
-12.9307816029 91.3788268566 -6.3536529041 21.7422334242 1
-9.4825255871 91.3788268566 -17.3443040495 3.7919372892 1
-6.0342695713 91.3788268566 -0.3790715061 8.2093318758 1
-2.5860135555 91.3788268566 -1.953476384 -7.635509595 1
0.8622424603 91.3788268566 9.6329368546 0.3757583369 1
4.310498476 91.3788268566 9.6664138403 0.5142921106 1
7.7587544918 91.3788268566 9.7591496944 0.5797607736 1
11.2070105076 91.3788268566 9.7165306636 0.4812316689 1
14.6552665234 91.3788268566 9.8347633968 0.4545262641 1
18.1035225391 91.3788268566 9.8513100602 0.5247221537 1
21.5517785549 91.3788268566 9.9741631436 0.4741613822 1
25.0000345707 91.3788268566 9.9196780889 0.5167173833 1
28.4482905865 91.3788268566 9.8357883144 0.4725472741 1
31.8965466022 91.3788268566 9.9190971196 0.4053329627 1
35.344802618 91.3788268566 10.0191718218 0.3971391033 1
38.7930586338 91.3788268566 9.9341584746 0.3663614325 1
42.2413146496 91.3788268566 9.9640016617 0.3572687149 1
45.6895706654 91.3788268566 10.0112191194 0.3215747284 1
49.1378266811 91.3788268566 9.9516642854 0.3572906382 1
52.5860826969 91.3788268566 10.0414569272 0.2324397877 1
56.0343387127 91.3788268566 9.948545686 0.3378336476 1
59.4825947285 91.3788268566 9.9513518774 0.2211766565 1
62.9308507442 91.3788268566 9.8778757035 0.2415051011 1
66.37910676 91.3788268566 9.9600335318 0.3170913993 1
69.8273627758 91.3788268566 9.9390693094 0.236917636 1
73.2756187916 91.3788268566 9.9477400022 0.3087714805 1
76.7238748074 91.3788268566 9.9515546685 0.4091750333 1
80.1721308231 91.3788268566 0.724877039 -0.1841179403 1
83.6203868389 91.3788268566 9.7456120136 0.1987682322 1
87.0686428547 91.3788268566 9.9349312734 0.2719292576 1
90.5168988705 91.3788268566 9.9880241942 0.2769908156 1
93.9651548862 91.3788268566 9.9123776067 0.2902928202 1
97.413410902 91.3788268566 9.8203323387 0.3135809197 1
100.8616669178 91.3788268566 9.901098033 0.2698657204 1
104.3099229336 91.3788268566 9.8989769469 0.2806081716 1
107.7581789494 91.3788268566 9.9748482489 0.3557176365 1
111.2064349651 91.3788268566 9.9374086142 0.3075903589 1
114.6546909809 91.3788268566 9.9227309181 0.3443257054 1
118.1029469967 91.3788268566 9.9463095023 0.3237561037 1
121.5512030125 91.3788268566 9.9448790024 0.3262581083 1
124.9994590282 91.3788268566 10.032835562 0.2653686892 1
128.447715044 91.3788268566 9.9307603523 0.3828642491 1
131.8959710598 91.3788268566 9.9556598195 0.4052260863 1
135.3442270756 91.3788268566 0 -0 0
-37.0685737133 87.9305708408 9.4457715659 -0.0762165951 1
-33.6203176975 87.9305708408 9.5621572552 0.0206079676 1
-30.1720616817 87.9305708408 9.4327107183 0.0868932761 1
-26.723805666 87.9305708408 9.5071570013 0.1865678769 1
-23.2755496502 87.9305708408 9.4203404569 0.2268000009 1
-19.8272936344 87.9305708408 9.2876108954 0.0746709975 1
-16.3790376186 87.9305708408 17.3713985942 5.0449318638 1
-12.9307816029 87.9305708408 3.4133919439 -0.2489782298 1
-9.4825255871 87.9305708408 -14.2801787905 -2.533344034 1
-6.0342695713 87.9305708408 0.5282107099 1.8693618949 1
-2.5860135555 87.9305708408 9.2953882108 0.3686195396 1
0.8622424603 87.9305708408 9.6031758801 0.4732186773 1
4.310498476 87.9305708408 9.6171903942 0.539843798 1
7.7587544918 87.9305708408 9.7921882127 0.609157272 1
11.2070105076 87.9305708408 9.8856310956 0.4903874162 1
14.6552665234 87.9305708408 9.8194225188 0.5358427831 1
18.1035225391 87.9305708408 9.8089979565 0.4841940643 1
21.5517785549 87.9305708408 10.0286810834 0.5537651379 1
25.0000345707 87.9305708408 9.8773331001 0.4639642748 1
28.4482905865 87.9305708408 9.9737520804 0.4320493292 1
31.8965466022 87.9305708408 9.9710116592 0.3671342313 1
35.344802618 87.9305708408 10.0919519286 0.4660113694 1
38.7930586338 87.9305708408 10.0552631693 0.3693046449 1
42.2413146496 87.9305708408 10.0355595407 0.3163597069 1
45.6895706654 87.9305708408 10.0459457371 0.2197214928 1
49.1378266811 87.9305708408 10.1316167854 0.3351343327 1
52.5860826969 87.9305708408 10.0794117611 0.2634312114 1
56.0343387127 87.9305708408 9.9805099592 0.2164521703 1
59.4825947285 87.9305708408 9.9893944048 0.2455335203 1
62.9308507442 87.9305708408 9.9596389111 0.2194173061 1
66.37910676 87.9305708408 9.9933899389 0.197173307 1
69.8273627758 87.9305708408 10.0040118116 0.2012044666 1
73.2756187916 87.9305708408 9.9769748158 0.2127663038 1
76.7238748074 87.9305708408 9.8247334552 0.2088091355 1
80.1721308231 87.9305708408 0.70393474 -2.8012256894 1
83.6203868389 87.9305708408 9.7156646905 0.175241716 1
87.0686428547 87.9305708408 9.8596793066 0.1983160627 1
90.5168988705 87.9305708408 9.9475262493 0.2218535406 1
93.9651548862 87.9305708408 9.8075345716 0.2585779254 1
97.413410902 87.9305708408 9.7843451272 0.2721539721 1
100.8616669178 87.9305708408 9.8724441887 0.2954009653 1
104.3099229336 87.9305708408 9.8885359421 0.2983578798 1
107.7581789494 87.9305708408 9.8647381242 0.2904682071 1
111.2064349651 87.9305708408 9.8773550235 0.2983661011 1
114.6546909809 87.9305708408 9.9328649958 0.3345259591 1
118.1029469967 87.9305708408 10.0177413219 0.3818585145 1
121.5512030125 87.9305708408 9.924753349 0.3651063196 1
124.9994590282 87.9305708408 9.97999476 0.373944178 1
128.447715044 87.9305708408 9.9857880105 0.4003673195 1
131.8959710598 87.9305708408 9.9487375155 0.4183636656 1
135.3442270756 87.9305708408 0 -0 0
-37.0685737133 84.4823148251 9.4599176202 -0.0406377063 1
-33.6203176975 84.4823148251 9.5158057707 0.1008831265 1
-30.1720616817 84.4823148251 9.389932743 0.0331755393 1
-26.723805666 84.4823148251 9.5089876027 0.1724519672 1
-23.2755496502 84.4823148251 9.487130003 0.1989216958 1
-19.8272936344 84.4823148251 9.40565728 0.3258799302 1
-16.3790376186 84.4823148251 -2.9188116832 -8.3367066543 1
-12.9307816029 84.4823148251 14.1603100258 -4.8977356187 1
-9.4825255871 84.4823148251 9.0838989433 -9.1114785425 1
-6.0342695713 84.4823148251 2.3301472811 -5.7701267917 1
-2.5860135555 84.4823148251 9.3125542094 0.6308011189 1
0.8622424603 84.4823148251 9.5599758799 0.5425787384 1
4.310498476 84.4823148251 9.5787861312 0.6006153791 1
7.7587544918 84.4823148251 9.6928863093 0.6349912229 1
11.2070105076 84.4823148251 9.8121768451 0.6314177136 1
14.6552665234 84.4823148251 9.8500604281 0.5644527806 1
18.1035225391 84.4823148251 9.9016077513 0.5644829253 1
21.5517785549 84.4823148251 9.9840122175 0.5005379364 1
25.0000345707 84.4823148251 9.9952972721 0.4609333689 1
28.4482905865 84.4823148251 9.9380498727 0.4977783323 1