TITLE = "B00020"
VARIABLES = "x", "y", "Vx", "Vy", "isValid"
ZONE T="Frame 0", I=51, J=39, F=POINT
-37.0685737133 118.9648749828 0 -0 0
-33.6203176975 118.9648749828 9.5376195236 0.3735221532 1
-30.1720616817 118.9648749828 9.5810716425 0.3716614071 1
-26.723805666 118.9648749828 9.6035430965 0.2056412086 1
-23.2755496502 118.9648749828 3.1145380478 -7.0021160377 1
-19.8272936344 118.9648749828 0.3447997983 13.7235992401 1
-16.3790376186 118.9648749828 3.0453533736 -5.5807910894 1
-12.9307816029 118.9648749828 0.4528299434 5.9797827174 1
-9.4825255871 118.9648749828 -5.6367724142 9.4675168083 1
-6.0342695713 118.9648749828 -1.8760457823 2.0314002614 1
-2.5860135555 118.9648749828 9.6603465477 0.2411515868 1
0.8622424603 118.9648749828 9.7699743583 0.3130821631 1
4.310498476 118.9648749828 9.7325676086 0.4482890654 1
7.7587544918 118.9648749828 9.6877397982 0.2996047715 1
11.2070105076 118.9648749828 9.7573026505 0.3716942922 1
14.6552665234 118.9648749828 9.8210886949 0.3671725972 1
18.1035225391 118.9648749828 9.8182770228 0.3486911965 1
21.5517785549 118.9648749828 9.7129407118 0.4271905624 1
25.0000345707 118.9648749828 9.7041549213 0.3548681059 1
28.4482905865 118.9648749828 9.7601362461 0.3679590981 1
31.8965466022 118.9648749828 9.9600883402 0.4165275834 1
35.344802618 118.9648749828 9.8204200322 0.3203059134 1
38.7930586338 118.9648749828 9.801187756 0.3161843199 1
42.2413146496 118.9648749828 9.8797885175 0.3036194886 1
45.6895706654 118.9648749828 10.0186730651 0.4369245386 1
49.1378266811 118.9648749828 10.0354773281 0.2667443806 1
52.5860826969 118.9648749828 9.926353755 0.2853244365 1
56.0343387127 118.9648749828 9.8439328463 0.4238554698 1
59.4825947285 118.9648749828 9.9149207176 0.3699596056 1
62.9308507442 118.9648749828 9.9869937958 0.2915780777 1
66.37910676 118.9648749828 9.9484853968 0.3713572204 1
69.8273627758 118.9648749828 9.846969233 0.3001747791 1
73.2756187916 118.9648749828 -0.7462742479 -1.5017234261 1
76.7238748074 118.9648749828 11.1239452337 2.0729477876 1
80.1721308231 118.9648749828 9.743754008 0.1514685619 1
83.6203868389 118.9648749828 9.8445576623 0.2609785344 1
87.0686428547 118.9648749828 9.9914003931 0.28944603 1
90.5168988705 118.9648749828 10.1038124717 0.3052911455 1
93.9651548862 118.9648749828 10.0283741563 0.3038414627 1
97.413410902 118.9648749828 9.9681945062 0.3379788899 1
100.8616669178 118.9648749828 9.9273786725 0.3629934548 1
104.3099229336 118.9648749828 10.0267024993 0.2979742209 1
107.7581789494 118.9648749828 10.0920834689 0.3440571442 1
111.2064349651 118.9648749828 9.9648402306 0.3904798797 1
114.6546909809 118.9648749828 10.0722921468 0.3495023611 1
118.1029469967 118.9648749828 10.0552960544 0.3443092629 1
121.5512030125 118.9648749828 10.0678088177 0.3927845739 1
124.9994590282 118.9648749828 10.1211209721 0.2996239544 1
128.447715044 118.9648749828 10.037428508 0.3512836349 1
131.8959710598 118.9648749828 10.0487135626 0.3915842694 1
135.3442270756 118.9648749828 0 -0 0
-37.0685737133 115.5166189671 9.6971449238 0.2027199196 1
-33.6203176975 115.5166189671 9.4953348241 0.3537253502 1
-30.1720616817 115.5166189671 9.6848130283 0.2286059384 1
-26.723805666 115.5166189671 9.4274107437 0.3186424777 1
-23.2755496502 115.5166189671 -0.4673651375 11.1401438636 1
-19.8272936344 115.5166189671 -17.5791773313 15.3124817632 1
-16.3790376186 115.5166189671 0.2527271261 -2.359162861 1
-12.9307816029 115.5166189671 -6.2237651593 -2.9770511151 1
-9.4825255871 115.5166189671 -5.4194049432 -1.9926205607 1
-6.0342695713 115.5166189671 0.5308332931 9.7541155407 1
-2.5860135555 115.5166189671 9.6804119119 0.4144832292 1
0.8622424603 115.5166189671 9.7175994279 0.4226167994 1
4.310498476 115.5166189671 9.6875315262 0.4236883041 1
7.7587544918 115.5166189671 9.7492074462 0.3579565606 1
11.2070105076 115.5166189671 9.7100961545 0.3985723436 1
14.6552665234 115.5166189671 9.6884523077 0.3984928713 1
18.1035225391 115.5166189671 9.6773700443 0.3251427569 1
21.5517785549 115.5166189671 9.7386129778 0.376065264 1
25.0000345707 115.5166189671 9.8504605296 0.3052281158 1
28.4482905865 115.5166189671 9.6941030563 0.3550023865 1
31.8965466022 115.5166189671 9.9245834429 0.3667752361 1
35.344802618 115.5166189671 9.9460683452 0.362396043 1
38.7930586338 115.5166189671 10.0277877061 0.2227770625 1
42.2413146496 115.5166189671 9.8616414482 0.3633661521 1
45.6895706654 115.5166189671 9.8754860562 0.3755363628 1
49.1378266811 115.5166189671 9.8271998343 0.1979461058 1
52.5860826969 115.5166189671 9.9150961046 0.2900516631 1
56.0343387127 115.5166189671 9.865719195 0.3478718105 1
59.4825947285 115.5166189671 10.0327040218 0.3207498617 1
62.9308507442 115.5166189671 9.8881522831 0.2681858422 1
66.37910676 115.5166189671 10.0203447221 0.4111042898 1
69.8273627758 115.5166189671 9.9792712888 0.3353014984 1
73.2756187916 115.5166189671 1.6707416455 -2.5003932092 1
76.7238748074 115.5166189671 11.5725576688 2.4239162741 1
80.1721308231 115.5166189671 9.6932754491 0.1241054559 1
83.6203868389 115.5166189671 9.9994298273 0.2830416656 1
87.0686428547 115.5166189671 10.0310542882 0.2735104806 1
90.5168988705 115.5166189671 10.0012385053 0.3387188036 1
93.9651548862 115.5166189671 10.0373079295 0.344010557 1
97.413410902 115.5166189671 10.0047462445 0.2900160376 1
100.8616669178 115.5166189671 9.9333144249 0.2723074357 1
104.3099229336 115.5166189671 9.9559283808 0.3401246397 1
107.7581789494 115.5166189671 9.9583509132 0.3223475272 1
111.2064349651 115.5166189671 9.9461067111 0.3000679027 1
114.6546909809 115.5166189671 9.9962673812 0.2913862483 1
118.1029469967 115.5166189671 10.1265963337 0.2830389252 1
121.5512030125 115.5166189671 9.9067816666 0.3301248427 1
124.9994590282 115.5166189671 9.9905947093 0.3602530336 1
128.447715044 115.5166189671 10.0267408652 0.3004351191 1
131.8959710598 115.5166189671 10.0343976021 0.3164912471 1
135.3442270756 115.5166189671 0 -0 0
-37.0685737133 112.0683629513 9.4815011778 0.3954455229 1
-33.6203176975 112.0683629513 9.5602992496 0.4115509785 1
-30.1720616817 112.0683629513 9.6122028276 0.3125943681 1
-26.723805666 112.0683629513 9.7350723536 0.1977159104 1
-23.2755496502 112.0683629513 9.6509469029 -0.3686030971 1
-19.8272936344 112.0683629513 5.780622605 10.0578747907 1
-16.3790376186 112.0683629513 -3.479225083 -14.0672891678 1
-12.9307816029 112.0683629513 2.601909373 -4.5202809611 1
-9.4825255871 112.0683629513 14.6064560818 -11.5592611451 1
-6.0342695713 112.0683629513 0.0064372495 10.7700664199 1
-2.5860135555 112.0683629513 9.7820322117 0.3779068271 1
0.8622424603 112.0683629513 9.7415397477 0.4687654928 1
4.310498476 112.0683629513 9.6899705011 0.3603927951 1
7.7587544918 112.0683629513 9.77954939 0.4298049242 1
11.2070105076 112.0683629513 9.7495088926 0.3346547589 1
14.6552665234 112.0683629513 9.8424420571 0.3426156826 1
18.1035225391 112.0683629513 9.6989316785 0.3873530591 1
21.5517785549 112.0683629513 9.753564716 0.3901647312 1
25.0000345707 112.0683629513 9.9215689795 0.4393059646 1
28.4482905865 112.0683629513 9.8718851427 0.3529114451 1
31.8965466022 112.0683629513 9.889511532 0.4255189054 1
35.344802618 112.0683629513 9.8525761348 0.3423827468 1
38.7930586338 112.0683629513 9.8636474365 0.3190124346 1
42.2413146496 112.0683629513 9.940927315 0.3162966772 1
45.6895706654 112.0683629513 9.9301574596 0.4243788902 1
49.1378266811 112.0683629513 9.8245580682 0.501075059 1
52.5860826969 112.0683629513 9.9353697408 0.3215254009 1
56.0343387127 112.0683629513 9.983995775 0.3556326834 1
59.4825947285 112.0683629513 9.9389596926 0.3314320236 1
62.9308507442 112.0683629513 10.0541231541 0.3428102525 1
66.37910676 112.0683629513 9.9581536028 0.2948994683 1
69.8273627758 112.0683629513 9.973905544 0.3125258576 1
73.2756187916 112.0683629513 -2.1342181253 7.5327547609 1
76.7238748074 112.0683629513 -0.4588040616 -4.3843999151 1
80.1721308231 112.0683629513 9.7361465987 0.2638093895 1
83.6203868389 112.0683629513 9.8923341659 0.2876154286 1
87.0686428547 112.0683629513 9.9390364244 0.2887006355 1
90.5168988705 112.0683629513 9.8789883145 0.3301001789 1
93.9651548862 112.0683629513 9.9584824534 0.2849133733 1
97.413410902 112.0683629513 9.9978129788 0.2890952561 1
100.8616669178 112.0683629513 10.0053052904 0.3651885322 1
104.3099229336 112.0683629513 9.9297025497 0.2712003055 1
107.7581789494 112.0683629513 9.9019804486 0.3040004071 1
111.2064349651 112.0683629513 9.9516149578 0.3730453199 1
114.6546909809 112.0683629513 9.9647854222 0.3531114959 1
118.1029469967 112.0683629513 10.0189690306 0.3635442795 1
121.5512030125 112.0683629513 10.031410543 0.2961436195 1
124.9994590282 112.0683629513 10.0537943035 0.4011976671 1
128.447715044 112.0683629513 10.0825851689 0.3664080197 1
131.8959710598 112.0683629513 10.0545671023 0.3970842948 1
135.3442270756 112.0683629513 0 -0 0
-37.0685737133 108.6201069355 9.5732833654 0.1588320737 1
-33.6203176975 108.6201069355 9.5941050859 0.2306119268 1
-30.1720616817 108.6201069355 9.6317968394 0.217907334 1
-26.723805666 108.6201069355 9.5630067858 0.3310976922 1
-23.2755496502 108.6201069355 0.2815947232 2.1655822462 1
-19.8272936344 108.6201069355 1.3837729563 -20.0454413346 1
-16.3790376186 108.6201069355 6.2283416628 4.6125564245 1
-12.9307816029 108.6201069355 -5.6621541955 5.776413318 1
-9.4825255871 108.6201069355 11.6618899199 2.3981316508 1
-6.0342695713 108.6201069355 0.0986880491 1.9251924965 1
-2.5860135555 108.6201069355 9.5526753978 0.4059797021 1
0.8622424603 108.6201069355 9.64273112 0.388276581 1
4.310498476 108.6201069355 9.6601547182 0.4437865533 1
7.7587544918 108.6201069355 9.8269093496 0.4382015749 1
11.2070105076 108.6201069355 9.8709808037 0.3279544291 1
14.6552665234 108.6201069355 9.8013083345 0.4138556727 1
18.1035225391 108.6201069355 9.8402661627 0.4314875429 1
21.5517785549 108.6201069355 9.8451660358 0.3492584636 1
25.0000345707 108.6201069355 9.7841149318 0.3568083241 1
28.4482905865 108.6201069355 9.8469199054 0.4385496084 1
31.8965466022 108.6201069355 9.8134593622 0.4004029449 1
35.344802618 108.6201069355 9.8315187381 0.3375705671 1
38.7930586338 108.6201069355 9.9084533235 0.35307313 1
42.2413146496 108.6201069355 9.9593374648 0.2784925664 1
45.6895706654 108.6201069355 9.9031095021 0.3628290295 1
49.1378266811 108.6201069355 9.9783724306 0.3932203009 1
52.5860826969 108.6201069355 9.8988618493 0.3904634372 1
56.0343387127 108.6201069355 9.9661282286 0.3405631071 1
59.4825947285 108.6201069355 9.9876350544 0.3448326834 1
62.9308507442 108.6201069355 10.0218903196 0.3152772405 1
66.37910676 108.6201069355 9.9909728874 0.228115403 1
69.8273627758 108.6201069355 9.9022325674 0.2767688414 1
73.2756187916 108.6201069355 9.9291489846 0.2015525001 1
76.7238748074 108.6201069355 -0.7807843724 4.7429155217 1
80.1721308231 108.6201069355 0.7420348163 -4.2083168898 1
83.6203868389 108.6201069355 9.873058043 0.3175024625 1
87.0686428547 108.6201069355 9.9677724813 0.3246741448 1
90.5168988705 108.6201069355 9.9373044782 0.2958640965 1
93.9651548862 108.6201069355 9.9734341916 0.2964779509 1
97.413410902 108.6201069355 9.9466383529 0.2472024369 1
100.8616669178 108.6201069355 9.9523658332 0.3305276846 1
104.3099229336 108.6201069355 9.9274828085 0.3520756167 1
107.7581789494 108.6201069355 9.9675970944 0.3578688671 1
111.2064349651 108.6201069355 10.0300677366 0.3482527291 1
114.6546909809 108.6201069355 10.015790142 0.3601790422 1
118.1029469967 108.6201069355 9.9605048842 0.3437255532 1
121.5512030125 108.6201069355 10.048455963 0.3502532365 1
124.9994590282 108.6201069355 9.9615517252 0.370970821 1
128.447715044 108.6201069355 9.9749743083 0.3691895472 1
131.8959710598 108.6201069355 10.0226576376 0.373196043 1
135.3442270756 108.6201069355 0 -0 0
-37.0685737133 105.1718509197 9.5577177729 0.217959402 1
-33.6203176975 105.1718509197 9.5778434263 0.3015395089 1
-30.1720616817 105.1718509197 9.5971688768 0.3445723434 1
-26.723805666 105.1718509197 9.6051435025 0.3257018028 1
-23.2755496502 105.1718509197 9.4647407616 0.443224767 1
-19.8272936344 105.1718509197 0.3103691461 1.5604342104 1
-16.3790376186 105.1718509197 -2.261653193 2.6455067342 1
-12.9307816029 105.1718509197 -3.0743689535 -3.1392730898 1
-9.4825255871 105.1718509197 -9.2395959751 10.3187437082 1
-6.0342695713 105.1718509197 0.8165687927 -2.8478018885 1
-2.5860135555 105.1718509197 9.5608034871 0.4196571444 1
0.8622424603 105.1718509197 9.6799460403 0.3588965251 1
4.310498476 105.1718509197 9.7447241171 0.4059111916 1
7.7587544918 105.1718509197 9.7161305621 0.3680440511 1
11.2070105076 105.1718509197 9.7988255129 0.3776821126 1
14.6552665234 105.1718509197 9.819729446 0.3946453199 1
18.1035225391 105.1718509197 9.842168015 0.3684277101 1
21.5517785549 105.1718509197 9.7409752209 0.4520132978 1
25.0000345707 105.1718509197 9.8928986927 0.3487898516 1
28.4482905865 105.1718509197 9.8911722273 0.3878709987 1
31.8965466022 105.1718509197 9.8927561908 0.4089201741 1
35.344802618 105.1718509197 9.9258440366 0.3605325566 1
38.7930586338 105.1718509197 9.8881632448 0.3637936578 1
42.2413146496 105.1718509197 9.9200343436 0.2961244365 1
45.6895706654 105.1718509197 9.9483319332 0.3296808944 1
49.1378266811 105.1718509197 10.0175768966 0.2998596307 1
52.5860826969 105.1718509197 9.9726504311 0.3592692224 1
56.0343387127 105.1718509197 9.9360438844 0.3701240308 1
59.4825947285 105.1718509197 10.0537888227 0.3430596308 1
62.9308507442 105.1718509197 10.0153297512 0.2724060909 1
66.37910676 105.1718509197 9.8791034122 0.3128875932 1
69.8273627758 105.1718509197 10.0531311216 0.3179436703 1
73.2756187916 105.1718509197 9.9163950642 0.266330577 1
76.7238748074 105.1718509197 -0.8505171309 -0.3482390269 1
80.1721308231 105.1718509197 2.4035028764 -6.6156947219 1
83.6203868389 105.1718509197 9.9121474113 0.2530861212 1
87.0686428547 105.1718509197 9.9240353586 0.3213253501 1
90.5168988705 105.1718509197 9.8809011286 0.2874619651 1
93.9651548862 105.1718509197 9.9721461936 0.2731788896 1
97.413410902 105.1718509197 9.9311549729 0.2591451926 1
100.8616669178 105.1718509197 9.9490608852 0.2921371237 1
104.3099229336 105.1718509197 9.9769419307 0.2843926933 1
107.7581789494 105.1718509197 9.9531824787 0.3214267457 1
111.2064349651 105.1718509197 9.9677067112 0.2715976666 1
114.6546909809 105.1718509197 9.9640893552 0.3614560785 1
118.1029469967 105.1718509197 10.0043571047 0.3360331908 1
121.5512030125 105.1718509197 10.0385740041 0.3803156574 1
124.9994590282 105.1718509197 9.984341068 0.3828149215 1
128.447715044 105.1718509197 10.0830948872 0.3680906383 1
131.8959710598 105.1718509197 9.9949245748 0.3586635893 1
135.3442270756 105.1718509197 0 -0 0
-37.0685737133 101.7235949039 9.6098460654 0.0489685868 1
-33.6203176975 101.7235949039 9.6366199807 0.3343861977 1
-30.1720616817 101.7235949039 9.5880871208 0.2720196915 1
-26.723805666 101.7235949039 9.6016796101 0.1612299423 1
-23.2755496502 101.7235949039 9.5819376156 0.2499565602 1
-19.8272936344 101.7235949039 0.5913938617 -4.2298949666 1
-16.3790376186 101.7235949039 -0.4312573475 0.6217714309 1
-12.9307816029 101.7235949039 -0.657183154 7.0211811482 1
-9.4825255871 101.7235949039 -6.0739737353 -1.7975738206 1
-6.0342695713 101.7235949039 0.6523654935 -9.6442438326 1
-2.5860135555 101.7235949039 9.6062506327 0.4633641225 1
0.8622424603 101.7235949039 9.6254883897 0.4536465889 1
4.310498476 101.7235949039 9.6596559615 0.4092243609 1
7.7587544918 101.7235949039 9.6606918407 0.4103862994 1
11.2070105076 101.7235949039 9.7820979818 0.4813358049 1
14.6552665234 101.7235949039 9.8893964343 0.4436714556 1
18.1035225391 101.7235949039 9.8256542367 0.4246995195 1
21.5517785549 101.7235949039 9.8141609101 0.4289362107 1
25.0000345707 101.7235949039 9.9876679394 0.4302899788 1
28.4482905865 101.7235949039 9.9090178503 0.3677837111 1
31.8965466022 101.7235949039 9.9874541866 0.3670383165 1
35.344802618 101.7235949039 9.8781607073 0.3070148705 1
38.7930586338 101.7235949039 9.9735547701 0.3399273294 1
42.2413146496 101.7235949039 10.0045708575 0.3031892425 1
45.6895706654 101.7235949039 10.013597805 0.2856587679 1
49.1378266811 101.7235949039 9.8966969165 0.3112680042 1
52.5860826969 101.7235949039 10.0235619766 0.4035900548 1
56.0343387127 101.7235949039 9.973384864 0.3559697552 1
59.4825947285 101.7235949039 10.0035349783 0.2600604932 1
62.9308507442 101.7235949039 9.9077462949 0.3177765046 1
66.37910676 101.7235949039 9.9614256658 0.3071601128 1
69.8273627758 101.7235949039 10.0737719742 0.3127313892 1
73.2756187916 101.7235949039 10.0015344708 0.2550893691 1
76.7238748074 101.7235949039 -1.4162798328 4.9387761669 1
80.1721308231 101.7235949039 -2.8084329972 2.8789824012 1
83.6203868389 101.7235949039 9.9286063812 0.2725924395 1
87.0686428547 101.7235949039 9.9911811594 0.2577146927 1
90.5168988705 101.7235949039 9.8989276194 0.2530121299 1
93.9651548862 101.7235949039 9.9270881879 0.3355015491 1
97.413410902 101.7235949039 9.9334350034 0.267254099 1
100.8616669178 101.7235949039 9.9954452548 0.3276200977 1
104.3099229336 101.7235949039 9.9673888224 0.2879278367 1
107.7581789494 101.7235949039 9.9375511161 0.2733981233 1
111.2064349651 101.7235949039 9.958043986 0.3829135767 1
114.6546909809 101.7235949039 10.0212655036 0.3240520692 1
118.1029469967 101.7235949039 10.0200213524 0.3154553679 1
121.5512030125 101.7235949039 9.9950725576 0.3547530082 1
124.9994590282 101.7235949039 10.022920718 0.3791126124 1
128.447715044 101.7235949039 9.9566573329 0.3574303997 1
131.8959710598 101.7235949039 10.060908437 0.3410591233 1
135.3442270756 101.7235949039 0 -0 0
-37.0685737133 98.2753388882 9.6434052637 0.1666285721 1
-33.6203176975 98.2753388882 9.6522184583 0.2298007621 1
-30.1720616817 98.2753388882 9.6605383771 0.216202792 1
-26.723805666 98.2753388882 9.5383046289 0.3018299935 1
-23.2755496502 98.2753388882 9.5921100592 0.2232127895 1
-19.8272936344 98.2753388882 1.621430506 -8.9304243932 1
-16.3790376186 98.2753388882 25.5422988027 5.7152169717 1
-12.9307816029 98.2753388882 -13.1758685097 11.2591576169 1
-9.4825255871 98.2753388882 -14.6529610299 8.9043301023 1
-6.0342695713 98.2753388882 0.5141578299 -5.8433344043 1
-2.5860135555 98.2753388882 0.6842530348 6.6061279114 1
0.8622424603 98.2753388882 9.6328546419 0.5085810727 1
4.310498476 98.2753388882 9.7685493392 0.4047903593 1
7.7587544918 98.2753388882 9.6689021427 0.5020780532 1
11.2070105076 98.2753388882 9.775203082 0.4974302988 1
14.6552665234 98.2753388882 9.7060732162 0.5514494819 1
18.1035225391 98.2753388882 9.7531591337 0.4147791947 1
21.5517785549 98.2753388882 9.8735622805 0.3731330133 1
25.0000345707 98.2753388882 9.9836340394 0.4966246149 1
28.4482905865 98.2753388882 9.9290174444 0.4009976163 1
31.8965466022 98.2753388882 9.8938304359 0.4140475022 1
35.344802618 98.2753388882 10.0136471326 0.3751033762 1
38.7930586338 98.2753388882 9.8716933132 0.4210684614 1
42.2413146496 98.2753388882 10.0617853718 0.3492886083 1
45.6895706654 98.2753388882 10.0683404594 0.2876318712 1
49.1378266811 98.2753388882 10.0367050368 0.3803320999 1
52.5860826969 98.2753388882 10.0773838494 0.3168995698 1
56.0343387127 98.2753388882 10.1142973233 0.3188918561 1
59.4825947285 98.2753388882 9.9398749933 0.2947761493 1
62.9308507442 98.2753388882 9.950113207 0.3429554948 1
66.37910676 98.2753388882 9.9813759323 0.3521057613 1
69.8273627758 98.2753388882 9.987613131 0.2481451418 1
73.2756187916 98.2753388882 10.0319038188 0.2245555959 1
76.7238748074 98.2753388882 9.798683011 0.2461583364 1
80.1721308231 98.2753388882 0.216183609 -3.7932033638 1
83.6203868389 98.2753388882 9.8877960284 0.2241582348 1
87.0686428547 98.2753388882 9.9057677107 0.2786158853 1
90.5168988705 98.2753388882 9.9446214028 0.3145482884 1
93.9651548862 98.2753388882 9.8511949625 0.2772566364 1
97.413410902 98.2753388882 9.9381430471 0.2696793717 1
100.8616669178 98.2753388882 9.9351450262 0.269635525 1
104.3099229336 98.2753388882 9.935917825 0.2816330891 1
107.7581789494 98.2753388882 9.99352696 0.2385920334 1
111.2064349651 98.2753388882 9.9607460413 0.3284997729 1
114.6546909809 98.2753388882 10.0010850417 0.287916875 1
118.1029469967 98.2753388882 9.9087109231 0.369422483 1
121.5512030125 98.2753388882 9.9810196775 0.3668464871 1
124.9994590282 98.2753388882 10.0099091981 0.3534102018 1
128.447715044 98.2753388882 9.9794083098 0.2932223305 1
131.8959710598 98.2753388882 10.109923611 0.3103746269 1
135.3442270756 98.2753388882 0 -0 0
-37.0685737133 94.8270828724 9.634104274 0.0899488458 1
-33.6203176975 94.8270828724 9.6665563422 0.1998616602 1
-30.1720616817 94.8270828724 9.6030662633 0.1725889882 1
-26.723805666 94.8270828724 9.533673317 0.2942171034 1
-23.2755496502 94.8270828724 9.5206398737 0.3435172812 1
-19.8272936344 94.8270828724 0.6644863765 1.1835550413 1
-16.3790376186 94.8270828724 -5.7185054771 -1.7958473552 1
-12.9307816029 94.8270828724 -11.3918022254 30.225097704 1
-9.4825255871 94.8270828724 14.0204389265 5.8767538411 1
-6.0342695713 94.8270828724 -0.1946521195 2.3977479918 1
-2.5860135555 94.8270828724 -0.2868097448 2.377340075 1
0.8622424603 94.8270828724 9.6202103384 0.4451019555 1
4.310498476 94.8270828724 9.6752270349 0.3558245129 1
7.7587544918 94.8270828724 9.7560146526 0.4117921355 1
11.2070105076 94.8270828724 9.7504570783 0.3830149723 1
14.6552665234 94.8270828724 9.8356019657 0.4476313643 1
18.1035225391 94.8270828724 9.8202117601 0.434649989 1
21.5517785549 94.8270828724 9.986012725 0.4811275329 1
25.0000345707 94.8270828724 9.940198363 0.4690176115 1
28.4482905865 94.8270828724 9.9525576627 0.3549420973 1
31.8965466022 94.8270828724 9.8355416765 0.4236499382 1
35.344802618 94.8270828724 9.8603370077 0.3899564592 1
38.7930586338 94.8270828724 10.085468092 0.3841440258 1
42.2413146496 94.8270828724 9.9630096292 0.3608230412 1
45.6895706654 94.8270828724 10.0951362981 0.321363716 1
49.1378266811 94.8270828724 10.0494479955 0.3294726224 1
52.5860826969 94.8270828724 9.959123712 0.3758871367 1
56.0343387127 94.8270828724 9.9160662137 0.2703343324 1
59.4825947285 94.8270828724 10.0346332783 0.3358742464 1
62.9308507442 94.8270828724 9.9548376932 0.2689093134 1
66.37910676 94.8270828724 9.9258385558 0.2772648577 1
69.8273627758 94.8270828724 10.0106162267 0.1930544539 1
73.2756187916 94.8270828724 9.9572492638 0.2564952052 1
76.7238748074 94.8270828724 9.7509065074 0.2268712518 1
80.1721308231 94.8270828724 -2.5104149296 10.6939621821 1
83.6203868389 94.8270828724 9.8851542623 0.166439483 1
87.0686428547 94.8270828724 9.9251753738 0.2763002294 1
90.5168988705 94.8270828724 9.9580549477 0.2996486182 1
93.9651548862 94.8270828724 9.8880755513 0.2800957128 1
97.413410902 94.8270828724 9.9068583984 0.2486795239 1
100.8616669178 94.8270828724 9.9635138668 0.339124386 1
104.3099229336 94.8270828724 9.9709404083 0.3105006863 1
107.7581789494 94.8270828724 9.9037507607 0.3086262382 1
111.2064349651 94.8270828724 9.964686767 0.3715408286 1
114.6546909809 94.8270828724 10.030818612 0.3462823662 1
118.1029469967 94.8270828724 9.9573259956 0.3326487706 1
121.5512030125 94.8270828724 10.0513388861 0.3455506737 1
124.9994590282 94.8270828724 10.0260776833 0.315814363 1
128.447715044 94.8270828724 10.0492123192 0.3355207321 1
131.8959710598 94.8270828724 10.0238086145 0.3617876695 1
135.3442270756 94.8270828724 0 -0 0
-37.0685737133 91.3788268566 9.5967906987 0.1521755905 1
-33.6203176975 91.3788268566 9.6902993516 0.1713119519 1
-30.1720616817 91.3788268566 9.54898131 0.324896119 1
-26.723805666 91.3788268566 9.5629958241 0.0840404977 1
-23.2755496502 91.3788268566 9.4826850398 0.2774758701 1
-19.8272936344 91.3788268566 9.3176733162 0.3851333179 1
-16.3790376186 91.3788268566 -20.7077107103 0.3517933533 1
-12.9307816029 91.3788268566 -5.7616040817 -7.2224568657 1
-9.4825255871 91.3788268566 14.3967042413 -0.5033112427 1
-6.0342695713 91.3788268566 -0.4424656703 -14.8900951592 1
-2.5860135555 91.3788268566 -0.5587280407 -15.0912146728 1
0.8622424603 91.3788268566 9.6882495166 0.412803351 1
4.310498476 91.3788268566 9.6478283035 0.5002666347 1
7.7587544918 91.3788268566 9.7380868169 0.5704707456 1
11.2070105076 91.3788268566 9.7485716685 0.4330687659 1
14.6552665234 91.3788268566 9.8062959012 0.4630078678 1
18.1035225391 91.3788268566 10.0468391145 0.5217816818 1
21.5517785549 91.3788268566 9.9119226968 0.4909793472 1
25.0000345707 91.3788268566 9.9365536028 0.4215425542 1
28.4482905865 91.3788268566 9.9693619256 0.4107124096 1
31.8965466022 91.3788268566 9.9035260462 0.4085036301 1
35.344802618 91.3788268566 10.0783868436 0.3815406257 1
38.7930586338 91.3788268566 10.0499741563 0.3674411585 1
42.2413146496 91.3788268566 10.0258255645 0.3526922114 1
45.6895706654 91.3788268566 9.9783559881 0.4215398138 1
49.1378266811 91.3788268566 10.1022668741 0.3566822647 1
52.5860826969 91.3788268566 10.0551864375 0.3136220261 1
56.0343387127 91.3788268566 10.0092734203 0.3669533635 1
59.4825947285 91.3788268566 10.0221150342 0.2914520184 1
62.9308507442 91.3788268566 9.9609926792 0.284820199 1
66.37910676 91.3788268566 9.930595927 0.2724088313 1
69.8273627758 91.3788268566 10.0300622557 0.1576180671 1
73.2756187916 91.3788268566 10.0521007232 0.2363668114 1
76.7238748074 91.3788268566 9.8713151351 0.2595370728 1
80.1721308231 91.3788268566 -2.2569615919 3.8933082106 1
83.6203868389 91.3788268566 9.8864422603 0.1806595287 1
87.0686428547 91.3788268566 9.9347504056 0.3072368446 1
90.5168988705 91.3788268566 9.9078668734 0.255426441 1
93.9651548862 91.3788268566 9.9377922731 0.2717209856 1
97.413410902 91.3788268566 9.8392028792 0.3180478063 1
100.8616669178 91.3788268566 9.9366687004 0.3039044924 1
104.3099229336 91.3788268566 9.8426229249 0.3250989101 1
107.7581789494 91.3788268566 9.8800954447 0.2947103792 1
111.2064349651 91.3788268566 9.8874397736 0.2430644008 1
114.6546909809 91.3788268566 9.9433169623 0.3615903591 1
118.1029469967 91.3788268566 9.9383513191 0.3855032747 1
121.5512030125 91.3788268566 9.9413438591 0.3783754391 1
124.9994590282 91.3788268566 10.1018996577 0.4110083751 1
128.447715044 91.3788268566 9.9334678885 0.3651693493 1
131.8959710598 91.3788268566 9.9867033111 0.3573591488 1
135.3442270756 91.3788268566 0 -0 0
-37.0685737133 87.9305708408 9.4609370569 0.181676225 1
-33.6203176975 87.9305708408 9.5840367783 0.1587553419 1
-30.1720616817 87.9305708408 9.5232323122 0.2810822645 1
-26.723805666 87.9305708408 9.4359115303 0.2775608232 1
-23.2755496502 87.9305708408 9.4614029285 0.3349178394 1
-19.8272936344 87.9305708408 9.452863776 0.3148689177 1
-16.3790376186 87.9305708408 8.529889908 1.2486345645 1
-12.9307816029 87.9305708408 -2.7102217814 -3.3988677114 1
-9.4825255871 87.9305708408 -20.0820780259 -5.5345108558 1
-6.0342695713 87.9305708408 0.6204176628 6.4060579791 1
-2.5860135555 87.9305708408 0.5567220524 6.6029736865 1
0.8622424603 87.9305708408 9.706078697 0.489143265 1
4.310498476 87.9305708408 9.7580754493 0.4942294868 1
7.7587544918 87.9305708408 9.6740979814 0.5166077665 1
11.2070105076 87.9305708408 9.8755189413 0.5414058381 1
14.6552665234 87.9305708408 9.7958768197 0.5248043664 1
18.1035225391 87.9305708408 9.9860839759 0.4999268225 1
21.5517785549 87.9305708408 9.9128599209 0.4475929984 1
25.0000345707 87.9305708408 9.8489313746 0.5572591749 1
28.4482905865 87.9305708408 10.1071831898 0.5323460056 1
31.8965466022 87.9305708408 10.0360857016 0.4403391034 1
35.344802618 87.9305708408 10.0146830118 0.3493461571 1
38.7930586338 87.9305708408 10.0859723295 0.4189336732 1
42.2413146496 87.9305708408 9.9700470309 0.375407563 1
45.6895706654 87.9305708408 9.9706882895 0.2985414881 1
49.1378266811 87.9305708408 10.0499960797 0.3412646549 1
52.5860826969 87.9305708408 10.0782607842 0.2420970321 1
56.0343387127 87.9305708408 9.9708362723 0.2529326576 1
59.4825947285 87.9305708408 9.9780326184 0.1209676736 1
62.9308507442 87.9305708408 10.0103038187 0.2284606961 1
66.37910676 87.9305708408 9.9388281524 0.1627262122 1
69.8273627758 87.9305708408 9.9871801444 0.2813809704 1
73.2756187916 87.9305708408 9.9373647674 0.3106568903 1
76.7238748074 87.9305708408 9.8453633461 0.2172167478 1
80.1721308231 87.9305708408 -4.352156119 18.4664051449 1
83.6203868389 87.9305708408 9.8239935414 0.2541466642 1
87.0686428547 87.9305708408 9.9187134606 0.2574598335 1
90.5168988705 87.9305708408 9.8554316537 0.2541055579 1
93.9651548862 87.9305708408 9.873578723 0.2308037563 1
97.413410902 87.9305708408 9.9348106949 0.2715784836 1
100.8616669178 87.9305708408 9.8682732676 0.2336373518 1
104.3099229336 87.9305708408 9.9531221895 0.3332544037 1
107.7581789494 87.9305708408 9.9309741051 0.3413030208 1
111.2064349651 87.9305708408 9.9133915626 0.3671123079 1
114.6546909809 87.9305708408 9.9487758814 0.3142523229 1
118.1029469967 87.9305708408 9.9731711111 0.3475621429 1
121.5512030125 87.9305708408 9.9419577134 0.3675726987 1
124.9994590282 87.9305708408 10.0597574601 0.3217912217 1
128.447715044 87.9305708408 10.0384040979 0.3689483901 1
131.8959710598 87.9305708408 9.9620943286 0.3400232441 1
135.3442270756 87.9305708408 0 -0 0
-37.0685737133 84.4823148251 9.5198067856 0.0795215431 1
-33.6203176975 84.4823148251 9.5264988943 0.1434857148 1
-30.1720616817 84.4823148251 9.5221361437 0.0656741946 1
-26.723805666 84.4823148251 9.5742753979 0.2345745759 1
-23.2755496502 84.4823148251 9.4411731391 0.2059399145 1
-19.8272936344 84.4823148251 9.4240071405 0.3114981996 1
-16.3790376186 84.4823148251 -5.3849222229 10.2510580444 1
-12.9307816029 84.4823148251 8.3393374587 3.1018307146 1
-9.4825255871 84.4823148251 -3.0288450762 -3.6517921478 1
-6.0342695713 84.4823148251 1.2897710275 -2.2430731372 1
-2.5860135555 84.4823148251 9.56101724 0.5451218493 1
0.8622424603 84.4823148251 9.6484969663 0.5405152012 1
4.310498476 84.4823148251 9.8236318058 0.5714271526 1
7.7587544918 84.4823148251 9.725108182 0.535790715 1
11.2070105076 84.4823148251 9.8089595906 0.6055042905 1
14.6552665234 84.4823148251 9.9810909285 0.5617397636 1
18.1035225391 84.4823148251 9.9582851431 0.4376480098 1
21.5517785549 84.4823148251 9.9050771246 0.4750794233 1
25.0000345707 84.4823148251 10.0140307916 0.5479390023 1