TITLE = "B00001"
VARIABLES = "x", "y", "Vx", "Vy", "isValid"
ZONE T="Frame 0", I=51, J=39, F=POINT
-37.0685737133 118.9648749828 0 -0 0
-33.6203176975 118.9648749828 9.7269004175 0.3912115722 1
-30.1720616817 118.9648749828 9.6650600722 0.3639663043 1
-26.723805666 118.9648749828 9.5604417515 0.3291519931 1
-23.2755496502 118.9648749828 -2.9039476385 6.81983692 1
-19.8272936344 118.9648749828 -8.1613553215 -15.2848363939 1
-16.3790376186 118.9648749828 5.7800032698 -12.3948046144 1
-12.9307816029 118.9648749828 0.3067161646 7.1532201235 1
-9.4825255871 118.9648749828 -5.7433282126 -0.0980769352 1
-6.0342695713 118.9648749828 -0.3698499887 7.1801228387 1
-2.5860135555 118.9648749828 9.5234625076 0.401079829 1
0.8622424603 118.9648749828 9.6104818431 0.398816241 1
4.310498476 118.9648749828 9.7304465226 0.3167680296 1
7.7587544918 118.9648749828 9.7154564185 0.3002076642 1
11.2070105076 118.9648749828 9.6870820971 0.2538369966 1
14.6552665234 118.9648749828 9.7225321861 0.3825491007 1
18.1035225391 118.9648749828 9.7640276442 0.4357872638 1
21.5517785549 118.9648749828 9.9068583984 0.3640594787 1
25.0000345707 118.9648749828 9.951746498 0.3447833558 1
28.4482905865 118.9648749828 9.8500330239 0.3617767078 1
31.8965466022 118.9648749828 9.8787855234 0.4948515624 1
35.344802618 118.9648749828 9.7508626607 0.4456418185 1
38.7930586338 118.9648749828 10.0362172418 0.4221317448 1
42.2413146496 118.9648749828 9.8884263252 0.2010975902 1
45.6895706654 118.9648749828 9.9145699437 0.2998267456 1
49.1378266811 118.9648749828 9.8747351808 0.3346191335 1
52.5860826969 118.9648749828 10.0085773533 0.2416256797 1
56.0343387127 118.9648749828 10.0548685487 0.3595021582 1
59.4825947285 118.9648749828 9.7821801944 0.3847085526 1
62.9308507442 118.9648749828 9.8089979565 0.3617767078 1
66.37910676 118.9648749828 9.9558626107 0.3587183977 1
69.8273627758 118.9648749828 9.9521794846 0.1478073591 1
73.2756187916 118.9648749828 3.0161678876 -11.4565337151 1
76.7238748074 118.9648749828 -5.9576592969 -6.6138367163 1
80.1721308231 118.9648749828 9.941135587 0.2423655934 1
83.6203868389 118.9648749828 9.9020133337 0.281723523 1
87.0686428547 118.9648749828 9.9885832401 0.2378576005 1
90.5168988705 118.9648749828 10.056666265 0.3637936578 1
93.9651548862 118.9648749828 9.9741905478 0.3267157587 1
97.413410902 118.9648749828 9.9807565971 0.3079055074 1
100.8616669178 118.9648749828 9.9462985406 0.3586772914 1
104.3099229336 118.9648749828 9.9692632705 0.3123586919 1
107.7581789494 118.9648749828 10.0173412204 0.3426595293 1
111.2064349651 118.9648749828 10.0091528418 0.3661065733 1
114.6546909809 118.9648749828 10.121126453 0.3827875173 1
118.1029469967 118.9648749828 10.0528570795 0.3437036298 1
121.5512030125 118.9648749828 9.9538018139 0.3337065732 1
124.9994590282 118.9648749828 10.0500837732 0.3313799556 1
128.447715044 118.9648749828 10.1042290157 0.3864432392 1
131.8959710598 118.9648749828 10.0146501268 0.3337997475 1
135.3442270756 118.9648749828 0 -0 0
-37.0685737133 115.5166189671 9.6869341144 0.4161165202 1
-33.6203176975 115.5166189671 9.6023811579 0.3256332923 1
-30.1720616817 115.5166189671 9.7299861318 0.2404719623 1
-26.723805666 115.5166189671 9.6750187629 0.3276365402 1
-23.2755496502 115.5166189671 0.3575564591 -9.7317454822 1
-19.8272936344 115.5166189671 8.5442716386 -8.14267387 1
-16.3790376186 115.5166189671 -11.8530123768 -4.0855240957 1
-12.9307816029 115.5166189671 0.0586641971 9.4458811827 1
-9.4825255871 115.5166189671 9.547380904 13.7854450662 1
-6.0342695713 115.5166189671 0.4765839145 -5.76308939 1
-2.5860135555 115.5166189671 9.7132202347 0.4142585146 1
0.8622424603 115.5166189671 9.5704826549 0.3130246142 1
4.310498476 115.5166189671 9.7220005443 0.3484774436 1
7.7587544918 115.5166189671 9.7276567737 0.3176203006 1
11.2070105076 115.5166189671 9.8376737242 0.3363099734 1
14.6552665234 115.5166189671 9.7228939217 0.4208601894 1
18.1035225391 115.5166189671 9.8919231027 0.5898400428 1
21.5517785549 115.5166189671 9.8583529427 0.3611162663 1
25.0000345707 115.5166189671 9.7653594889 0.3978735361 1
28.4482905865 115.5166189671 9.796282402 0.3670273549 1
31.8965466022 115.5166189671 9.848498388 0.3992766318 1
35.344802618 115.5166189671 9.8853406109 0.3455671163 1
38.7930586338 115.5166189671 9.9560654019 0.3159267203 1
42.2413146496 115.5166189671 9.8960282537 0.3869008896 1
45.6895706654 115.5166189671 9.9001662898 0.2093380368 1
49.1378266811 115.5166189671 9.8798488068 0.3198071568 1
52.5860826969 115.5166189671 9.8669194995 0.2977522468 1
56.0343387127 115.5166189671 9.9069515727 0.2813343832 1
59.4825947285 115.5166189671 9.9401380737 0.2639628531 1
62.9308507442 115.5166189671 9.9716035902 0.2815536169 1
66.37910676 115.5166189671 9.884469157 0.465540017 1
69.8273627758 115.5166189671 9.946599987 0.3572029448 1
73.2756187916 115.5166189671 2.7397964072 -11.4718526697 1
76.7238748074 115.5166189671 -14.0517180944 -18.3524967963 1
80.1721308231 115.5166189671 9.9486827071 0.400123422 1
83.6203868389 115.5166189671 9.9245670003 0.3299713791 1
87.0686428547 115.5166189671 9.9698113547 0.2598165958 1
90.5168988705 115.5166189671 9.9376662138 0.3022191333 1
93.9651548862 115.5166189671 9.952754973 0.3470606458 1
97.413410902 115.5166189671 9.9496418545 0.3023479331 1
100.8616669178 115.5166189671 9.936301484 0.3151676236 1
104.3099229336 115.5166189671 9.9046496189 0.3838343582 1
107.7581789494 115.5166189671 9.9952808296 0.3258278622 1
111.2064349651 115.5166189671 10.0301006216 0.3820393823 1
114.6546909809 115.5166189671 10.0143377188 0.330165949 1
118.1029469967 115.5166189671 10.0271409667 0.3385297146 1
121.5512030125 115.5166189671 9.9958179521 0.3162309071 1
124.9994590282 115.5166189671 10.0403223928 0.348915911 1
128.447715044 115.5166189671 10.0075962825 0.3239698566 1
131.8959710598 115.5166189671 9.9570300301 0.334863031 1
135.3442270756 115.5166189671 0 -0 0
-37.0685737133 112.0683629513 9.6649559362 0.3973281923 1
-33.6203176975 112.0683629513 9.7621367536 0.1576016246 1
-30.1720616817 112.0683629513 9.581959539 0.2897365147 1
-26.723805666 112.0683629513 9.657830841 0.2775087552 1
-23.2755496502 112.0683629513 -0.7395355522 -0.7078480616 1
-19.8272936344 112.0683629513 3.7719431759 7.4663844993 1
-16.3790376186 112.0683629513 -4.305664873 -4.3244011329 1
-12.9307816029 112.0683629513 -2.7407911801 -2.4716845564 1
-9.4825255871 112.0683629513 3.2367882386 7.8192822423 1
-6.0342695713 112.0683629513 0.5161062694 2.4965758024 1
-2.5860135555 112.0683629513 9.7366617979 0.3190261367 1
0.8622424603 112.0683629513 9.6577376667 0.3825025135 1
4.310498476 112.0683629513 9.6895484762 0.3445339775 1
7.7587544918 112.0683629513 9.6875972963 0.3717765048 1
11.2070105076 112.0683629513 9.7691522319 0.462879068 1
14.6552665234 112.0683629513 9.8726853457 0.397599494 1
18.1035225391 112.0683629513 9.8990481979 0.3992738914 1
21.5517785549 112.0683629513 9.8263557845 0.3558327342 1
25.0000345707 112.0683629513 9.6698941752 0.4288019301 1
28.4482905865 112.0683629513 9.7477659847 0.3497764033 1
31.8965466022 112.0683629513 9.8418939729 0.3188671923 1
35.344802618 112.0683629513 9.925690573 0.3574879486 1
38.7930586338 112.0683629513 9.9220512936 0.4648658734 1
42.2413146496 112.0683629513 9.9553254881 0.2586875422 1
45.6895706654 112.0683629513 9.969696257 0.3331530081 1
49.1378266811 112.0683629513 9.8882783425 0.3802553681 1
52.5860826969 112.0683629513 9.9036301822 0.2779335205 1
56.0343387127 112.0683629513 9.8883386318 0.3155375805 1
59.4825947285 112.0683629513 10.0054751965 0.2312696279 1
62.9308507442 112.0683629513 9.8886729631 0.229455469 1
66.37910676 112.0683629513 9.7913167588 0.3010078672 1
69.8273627758 112.0683629513 10.0120302841 0.3670712016 1
73.2756187916 112.0683629513 -0.9424664842 6.2240117973 1
76.7238748074 112.0683629513 -0.4122799305 -1.3307595077 1
80.1721308231 112.0683629513 9.4977354331 0.4461296135 1
83.6203868389 112.0683629513 10.0102380486 0.3833657462 1
87.0686428547 112.0683629513 9.9730888985 0.3551531097 1
90.5168988705 112.0683629513 10.0075853209 0.3335832542 1
93.9651548862 112.0683629513 9.9366687004 0.342481402 1
97.413410902 112.0683629513 9.9294394693 0.3527442794 1
100.8616669178 112.0683629513 9.9790520551 0.333418829 1
104.3099229336 112.0683629513 9.9414534759 0.3226023864 1
107.7581789494 112.0683629513 9.9712911822 0.294578839 1
111.2064349651 112.0683629513 9.966078901 0.3366771898 1
114.6546909809 112.0683629513 9.9502228238 0.3694663297 1
118.1029469967 112.0683629513 10.0337563435 0.334616393 1
121.5512030125 112.0683629513 10.0007233061 0.3033947741 1
124.9994590282 112.0683629513 10.0010576375 0.3178669385 1
128.447715044 112.0683629513 9.9524316033 0.3034687654 1
131.8959710598 112.0683629513 10.0505880107 0.346079575 1
135.3442270756 112.0683629513 0 -0 0
-37.0685737133 108.6201069355 9.6977423357 0.3046142615 1
-33.6203176975 108.6201069355 9.7077777582 0.3459973624 1
-30.1720616817 108.6201069355 9.591698996 0.238134383 1
-26.723805666 108.6201069355 9.7028395192 0.0033542756 1
-23.2755496502 108.6201069355 -3.3629051637 -0.7049404746 1
-19.8272936344 108.6201069355 -8.4978543839 -6.4413546045 1
-16.3790376186 108.6201069355 11.5059380289 18.3730033683 1
-12.9307816029 108.6201069355 -8.4556107907 11.6388758624 1
-9.4825255871 108.6201069355 0.1883875166 -8.7832199267 1
-6.0342695713 108.6201069355 0.0673568132 -8.384061133 1
-2.5860135555 108.6201069355 9.6824891511 0.3495133228 1
0.8622424603 108.6201069355 9.6649778595 0.4933717349 1
4.310498476 108.6201069355 9.7904233814 0.4165988344 1
7.7587544918 108.6201069355 9.7467903947 0.4164070049 1
11.2070105076 108.6201069355 9.8260050106 0.3371019551 1
14.6552665234 108.6201069355 9.756765528 0.4326741453 1
18.1035225391 108.6201069355 9.8002669745 0.4218302985 1
21.5517785549 108.6201069355 9.7923690805 0.3984654671 1
25.0000345707 108.6201069355 9.7977622295 0.4683215445 1
28.4482905865 108.6201069355 9.8071235084 0.437239687 1
31.8965466022 108.6201069355 9.9244957494 0.3785042389 1
35.344802618 108.6201069355 9.9802139937 0.4071717854 1
38.7930586338 108.6201069355 9.9605870969 0.4179087557 1
42.2413146496 108.6201069355 9.9165868937 0.3770901816 1
45.6895706654 108.6201069355 9.9434210983 0.351785132 1
49.1378266811 108.6201069355 9.9266113546 0.3340792705 1
52.5860826969 108.6201069355 9.8899554803 0.4460611029 1
56.0343387127 108.6201069355 9.9497350288 0.3234162915 1
59.4825947285 108.6201069355 9.9303164041 0.2202175091 1
62.9308507442 108.6201069355 9.9840451026 0.2259285469 1
66.37910676 108.6201069355 9.8851871473 0.301292871 1
69.8273627758 108.6201069355 10.0522432251 0.2973521453 1
73.2756187916 108.6201069355 9.9742782413 0.2788597828 1
76.7238748074 108.6201069355 -4.3875705825 12.2716610463 1
80.1721308231 108.6201069355 -2.2987694581 14.5594414153 1
83.6203868389 108.6201069355 10.026505189 0.3732974386 1
87.0686428547 108.6201069355 9.978081946 0.2746176108 1
90.5168988705 108.6201069355 9.9791287869 0.327017205 1
93.9651548862 108.6201069355 9.9379841026 0.277045624 1
97.413410902 108.6201069355 9.9763280764 0.3263622443 1
100.8616669178 108.6201069355 9.9531879596 0.2820578544 1
104.3099229336 108.6201069355 9.9441610121 0.3248851573 1
107.7581789494 108.6201069355 9.9742343946 0.3361510289 1
111.2064349651 108.6201069355 10.0068344454 0.2781280904 1
114.6546909809 108.6201069355 9.9487320347 0.3136713536 1
118.1029469967 108.6201069355 10.0469268079 0.3650487707 1
121.5512030125 108.6201069355 10.0292565719 0.3326268472 1
124.9994590282 108.6201069355 10.0567484776 0.3519194127 1
128.447715044 108.6201069355 10.0659288887 0.341922356 1
131.8959710598 108.6201069355 9.9913949123 0.3287409299 1
135.3442270756 108.6201069355 0 -0 0
-37.0685737133 105.1718509197 9.552702802 0.2543193108 1
-33.6203176975 105.1718509197 9.638209425 0.2368902318 1
-30.1720616817 105.1718509197 9.5475453293 0.2631845734 1
-26.723805666 105.1718509197 9.6277684202 0.1560286228 1
-23.2755496502 105.1718509197 9.4137689268 0.0931989854 1
-19.8272936344 105.1718509197 -3.2864556329 -7.7330302247 1
-16.3790376186 105.1718509197 -6.2352256009 -1.7083457055 1
-12.9307816029 105.1718509197 7.2565531866 -4.589092938 1
-9.4825255871 105.1718509197 8.2824189099 -9.1911371067 1
-6.0342695713 105.1718509197 -0.6434070565 -6.8278362096 1
-2.5860135555 105.1718509197 9.5974264764 0.339749202 1
0.8622424603 105.1718509197 9.6568662127 0.4038229906 1
4.310498476 105.1718509197 9.7665159467 0.4704755156 1
7.7587544918 105.1718509197 9.7438745865 0.4086214682 1
11.2070105076 105.1718509197 9.8099406614 0.4111919833 1
14.6552665234 105.1718509197 9.7216716938 0.3592144139 1
18.1035225391 105.1718509197 9.8027223919 0.3709543785 1
21.5517785549 105.1718509197 9.7563160989 0.473002184 1
25.0000345707 105.1718509197 9.8846116589 0.4683845742 1
28.4482905865 105.1718509197 9.8620031838 0.3886766825 1
31.8965466022 105.1718509197 9.9769254882 0.4561568147 1
35.344802618 105.1718509197 9.9449118875 0.4329098215 1
38.7930586338 105.1718509197 9.9212072439 0.4310600372 1
42.2413146496 105.1718509197 9.928299454 0.4102903847 1
45.6895706654 105.1718509197 9.9359342676 0.3191439748 1
49.1378266811 105.1718509197 9.8875767947 0.4213096184 1
52.5860826969 105.1718509197 9.97999476 0.4805054573 1
56.0343387127 105.1718509197 9.9628232806 0.3534513081 1
59.4825947285 105.1718509197 9.9406423112 0.2478820613 1
62.9308507442 105.1718509197 9.9818527656 0.2655166719 1
66.37910676 105.1718509197 9.9108155666 0.304370364 1
69.8273627758 105.1718509197 9.9096097813 0.3507958399 1
73.2756187916 105.1718509197 10.0367105176 0.2602715057 1
76.7238748074 105.1718509197 0.9510083771 -4.5114951706 1
80.1721308231 105.1718509197 0.5479006364 -4.7546363032 1
83.6203868389 105.1718509197 9.9400448994 0.3609929473 1
87.0686428547 105.1718509197 9.9512751456 0.2602578036 1
90.5168988705 105.1718509197 9.9590743844 0.3240219246 1
93.9651548862 105.1718509197 9.8894731661 0.2865302218 1
97.413410902 105.1718509197 9.9385705528 0.3328625235 1
100.8616669178 105.1718509197 9.9943490864 0.2921864512 1
104.3099229336 105.1718509197 9.9301026512 0.3676220263 1
107.7581789494 105.1718509197 9.9925842551 0.2999939113 1
111.2064349651 105.1718509197 9.9723489848 0.356690486 1
114.6546909809 105.1718509197 10.0090980334 0.3835849799 1
118.1029469967 105.1718509197 10.0472995052 0.3506122317 1
121.5512030125 105.1718509197 10.0457703502 0.3455753375 1
124.9994590282 105.1718509197 10.05565779 0.3954948505 1
128.447715044 105.1718509197 10.0118823013 0.3842673448 1
131.8959710598 105.1718509197 9.9997915629 0.3414427823 1
135.3442270756 105.1718509197 0 -0 0
-37.0685737133 101.7235949039 9.4979437051 0.1572042635 1
-33.6203176975 101.7235949039 9.6497520792 0.1771846746 1
-30.1720616817 101.7235949039 9.577958524 0.1988504448 1
-26.723805666 101.7235949039 9.5589125965 0.277878712 1
-23.2755496502 101.7235949039 9.4601204114 0.3011668116 1
-19.8272936344 101.7235949039 -0.3749142871 1.4717267754 1
-16.3790376186 101.7235949039 22.289511985 -9.3532275412 1
-12.9307816029 101.7235949039 -0.1000061917 -10.5111322398 1
-9.4825255871 101.7235949039 6.3616247894 -7.3714371251 1
-6.0342695713 101.7235949039 0.4540138053 -0.5532663812 1
-2.5860135555 101.7235949039 9.5113936925 0.3838836858 1
0.8622424603 101.7235949039 9.6008794071 0.3733330641 1
4.310498476 101.7235949039 9.7785957234 0.4114468425 1
7.7587544918 101.7235949039 9.7448063298 0.4760056856 1
11.2070105076 101.7235949039 9.7432442897 0.547377216 1
14.6552665234 101.7235949039 9.820737921 0.4941143891 1
18.1035225391 101.7235949039 9.8243059495 0.4251215444 1
21.5517785549 101.7235949039 9.7581850662 0.4055357539 1
25.0000345707 101.7235949039 10.0427832911 0.4021431124 1
28.4482905865 101.7235949039 9.9747605555 0.4727171802 1
31.8965466022 101.7235949039 9.8939784186 0.3766544546 1
35.344802618 101.7235949039 9.9344105934 0.3509712269 1
38.7930586338 101.7235949039 10.0085006216 0.3653392554 1
42.2413146496 101.7235949039 9.943295039 0.4005536681 1
45.6895706654 101.7235949039 9.9403901925 0.3700555203 1
49.1378266811 101.7235949039 9.9502009004 0.367978281 1
52.5860826969 101.7235949039 9.958356394 0.3368936831 1
56.0343387127 101.7235949039 9.9050935671 0.3105363118 1
59.4825947285 101.7235949039 10.0634734713 0.3309387478 1
62.9308507442 101.7235949039 10.0755368055 0.2882238022 1
66.37910676 101.7235949039 9.9449721768 0.3154471466 1
69.8273627758 101.7235949039 9.9649114816 0.3310949518 1
73.2756187916 101.7235949039 9.9047756783 0.3184177632 1
76.7238748074 101.7235949039 2.9737187629 -12.7471296094 1
80.1721308231 101.7235949039 -2.7402211725 8.6398328671 1
83.6203868389 101.7235949039 9.8577719734 0.3215281413 1
87.0686428547 101.7235949039 9.9630918419 0.3138659235 1
90.5168988705 101.7235949039 9.9438486041 0.3524757182 1
93.9651548862 101.7235949039 9.9015255387 0.3243398135 1
97.413410902 101.7235949039 9.9091384288 0.3025534647 1
100.8616669178 101.7235949039 9.9199302076 0.2957846243 1
104.3099229336 101.7235949039 9.9641167594 0.2908217215 1
107.7581789494 101.7235949039 9.9677944047 0.3332352208 1
111.2064349651 101.7235949039 9.9834476907 0.3221556977 1
114.6546909809 101.7235949039 9.9642592613 0.3218734344 1
118.1029469967 101.7235949039 9.987125336 0.3626865276 1
121.5512030125 101.7235949039 9.9594744859 0.3942589206 1
124.9994590282 101.7235949039 10.0178893047 0.3601735614 1
128.447715044 101.7235949039 10.0168205404 0.3400451675 1
131.8959710598 101.7235949039 9.9633878074 0.367353465 1
135.3442270756 101.7235949039 0 -0 0
-37.0685737133 98.2753388882 9.4471472573 0.1929201733 1
-33.6203176975 98.2753388882 9.6666385548 0.1828984529 1
-30.1720616817 98.2753388882 9.6771617723 0.1308797772 1
-26.723805666 98.2753388882 9.6373434519 0.2209163165 1
-23.2755496502 98.2753388882 9.4947319315 0.2186664307 1
-19.8272936344 98.2753388882 -2.5568678097 9.1469615165 1
-16.3790376186 98.2753388882 8.3762290092 -2.2487403282 1
-12.9307816029 98.2753388882 -8.9609965323 -4.610939576 1
-9.4825255871 98.2753388882 5.9714271731 -17.4520327482 1
-6.0342695713 98.2753388882 0.4520571446 -8.7072390079 1
-2.5860135555 98.2753388882 0.421202742 -8.861552127 1
0.8622424603 98.2753388882 9.5413136114 0.468428421 1
4.310498476 98.2753388882 9.7675244217 0.5100526789 1
7.7587544918 98.2753388882 9.7867018894 0.4582039094 1
11.2070105076 98.2753388882 9.8136292684 0.5056871879 1
14.6552665234 98.2753388882 9.7722269845 0.4489166218 1
18.1035225391 98.2753388882 9.7818677864 0.3987723943 1
21.5517785549 98.2753388882 9.9212510906 0.4079884309 1
25.0000345707 98.2753388882 9.9622587538 0.4840214177 1
28.4482905865 98.2753388882 9.8567963835 0.4712346123 1
31.8965466022 98.2753388882 9.955051446 0.438404366 1
35.344802618 98.2753388882 9.9403189415 0.2830526273 1
38.7930586338 98.2753388882 9.8322586518 0.3782493798 1
42.2413146496 98.2753388882 10.0071358918 0.3374746524 1
45.6895706654 98.2753388882 10.0164697665 0.3648432391 1
49.1378266811 98.2753388882 9.8809614178 0.3583128154 1
52.5860826969 98.2753388882 9.9354190684 0.3118599352 1
56.0343387127 98.2753388882 10.0117288378 0.2724499376 1
59.4825947285 98.2753388882 9.8758094259 0.2660757178 1
62.9308507442 98.2753388882 9.9893450772 0.2395922871 1
66.37910676 98.2753388882 10.009876313 0.2465584379 1
69.8273627758 98.2753388882 9.8838333793 0.3130712014 1
73.2756187916 98.2753388882 9.8926356122 0.3138275576 1
76.7238748074 98.2753388882 -3.7097109504 7.982636011 1
80.1721308231 98.2753388882 -0.7105665594 3.5104741062 1
83.6203868389 98.2753388882 9.8914791545 0.3107281412 1
87.0686428547 98.2753388882 9.9299546685 0.2681639188 1
90.5168988705 98.2753388882 9.9394474876 0.3139481362 1
93.9651548862 98.2753388882 9.9052908774 0.3318211634 1
97.413410902 98.2753388882 9.9331664421 0.3076013206 1
100.8616669178 98.2753388882 9.8711945566 0.3355481363 1
104.3099229336 98.2753388882 9.9056909789 0.2950556723 1
107.7581789494 98.2753388882 9.8585831381 0.306666837 1
111.2064349651 98.2753388882 9.9678218089 0.330842833 1
114.6546909809 98.2753388882 10.0178180537 0.3224078165 1
118.1029469967 98.2753388882 9.9761910553 0.3531663043 1
121.5512030125 98.2753388882 10.0053052904 0.354517332 1
124.9994590282 98.2753388882 9.9842204895 0.3778986058 1
128.447715044 98.2753388882 9.9277513698 0.3611162663 1
131.8959710598 98.2753388882 10.0058972214 0.3988025389 1
135.3442270756 98.2753388882 0 -0 0
-37.0685737133 94.8270828724 9.6283110236 0.0823112919 1
-33.6203176975 94.8270828724 9.7313837466 0.2011852837 1
-30.1720616817 94.8270828724 9.6526021173 0.0802751589 1
-26.723805666 94.8270828724 9.6354361187 0.2222399399 1
-23.2755496502 94.8270828724 9.4666152097 0.3248056851 1
-19.8272936344 94.8270828724 -0.8923195162 7.1726058633 1
-16.3790376186 94.8270828724 11.8996707886 -21.510941873 1
-12.9307816029 94.8270828724 -8.3888239851 10.8133130072 1
-9.4825255871 94.8270828724 8.1626789449 14.6789703678 1
-6.0342695713 94.8270828724 0.332182899 -16.9042663924 1
-2.5860135555 94.8270828724 0.4035105826 -16.756853654 1
0.8622424603 94.8270828724 9.580846928 0.4400869847 1
4.310498476 94.8270828724 9.6729086385 0.4704535922 1
7.7587544918 94.8270828724 9.8003491871 0.5677988349 1
11.2070105076 94.8270828724 9.7787875529 0.430057043 1
14.6552665234 94.8270828724 9.9242600731 0.4918973883 1
18.1035225391 94.8270828724 9.7922320595 0.4567432649 1
21.5517785549 94.8270828724 9.8546369315 0.4870989108 1
25.0000345707 94.8270828724 9.8246896084 0.4759371751 1
28.4482905865 94.8270828724 9.8763903952 0.4173962969 1
31.8965466022 94.8270828724 10.0170507358 0.3831355508 1
35.344802618 94.8270828724 9.8989988703 0.3669341805 1
38.7930586338 94.8270828724 10.0341838493 0.3981832037 1
42.2413146496 94.8270828724 10.1198494167 0.2903996966 1
45.6895706654 94.8270828724 9.9488526132 0.3063133227 1
49.1378266811 94.8270828724 9.9069022451 0.2860342056 1
52.5860826969 94.8270828724 9.927153958 0.3448655684 1
56.0343387127 94.8270828724 9.9645881119 0.2773909171 1
59.4825947285 94.8270828724 10.1184298785 0.3174202499 1
62.9308507442 94.8270828724 9.9988981856 0.2928989608 1
66.37910676 94.8270828724 10.086131274 0.2795640711 1
69.8273627758 94.8270828724 9.971784458 0.2060769356 1
73.2756187916 94.8270828724 9.9803455339 0.2943486436 1
76.7238748074 94.8270828724 6.9749475017 -35.9043028004 1
80.1721308231 94.8270828724 7.0244121048 -35.9414026229 1
83.6203868389 94.8270828724 9.6588996053 0.3066038073 1
87.0686428547 94.8270828724 9.9169431485 0.2757877706 1
90.5168988705 94.8270828724 9.8921368556 0.2620801837 1
93.9651548862 94.8270828724 9.9570848386 0.2717346877 1
97.413410902 94.8270828724 9.9172281523 0.3222927188 1
100.8616669178 94.8270828724 9.940582022 0.2887280397 1
104.3099229336 94.8270828724 9.8585612147 0.2677117493 1
107.7581789494 94.8270828724 9.9288420574 0.2972041625 1
111.2064349651 94.8270828724 10.0375052398 0.3870022852 1
114.6546909809 94.8270828724 9.9889723799 0.3490967788 1
118.1029469967 94.8270828724 9.9738397739 0.3684441526 1
121.5512030125 94.8270828724 10.0103860314 0.3657146931 1
124.9994590282 94.8270828724 10.0326163283 0.3603571696 1
128.447715044 94.8270828724 10.043029929 0.3606832797 1
131.8959710598 94.8270828724 10.0421036666 0.3604722673 1
135.3442270756 94.8270828724 0 -0 0
-37.0685737133 91.3788268566 9.3897573561 0.1954112162 1
-33.6203176975 91.3788268566 9.6048913838 0.1456314646 1
-30.1720616817 91.3788268566 9.4844937178 0.1329159102 1
-26.723805666 91.3788268566 9.4393644611 0.2445853346 1
-23.2755496502 91.3788268566 9.4956088662 0.2761111404 1
-19.8272936344 91.3788268566 9.2982766148 0.2756315666 1
-16.3790376186 91.3788268566 -8.2920734138 5.9609313598 1
-12.9307816029 91.3788268566 11.2169112833 -10.3196699706 1
-9.4825255871 91.3788268566 10.7655419845 -10.0653150344 1
-6.0342695713 91.3788268566 0.2704055834 6.5363951529 1
-2.5860135555 91.3788268566 0.1762145655 7.9267670435 1
0.8622424603 91.3788268566 9.683919651 0.4752137039 1
4.310498476 91.3788268566 9.7201809047 0.4715250969 1
7.7587544918 91.3788268566 9.7168595141 0.5248125876 1
11.2070105076 91.3788268566 9.8790266804 0.528243595 1
14.6552665234 91.3788268566 9.8613235593 0.4873373274 1
18.1035225391 91.3788268566 9.8695941506 0.4943281419 1
21.5517785549 91.3788268566 9.8352731152 0.5041141861 1
25.0000345707 91.3788268566 9.9238051632 0.5265993423 1
28.4482905865 91.3788268566 9.9164553535 0.3897016001 1
31.8965466022 91.3788268566 10.1258947859 0.3517659491 1
35.344802618 91.3788268566 9.9767720246 0.4016607983 1
38.7930586338 91.3788268566 9.984900114 0.3670903845 1
42.2413146496 91.3788268566 10.0470802715 0.3981146932 1
45.6895706654 91.3788268566 10.0306596676 0.3135014475 1
49.1378266811 91.3788268566 9.9437937956 0.2961545812 1
52.5860826969 91.3788268566 9.9277404081 0.3038140585 1
56.0343387127 91.3788268566 10.0192869195 0.3001555962 1
59.4825947285 91.3788268566 10.0132744353 0.2861027161 1
62.9308507442 91.3788268566 10.0266696143 0.2498551646 1
66.37910676 91.3788268566 10.0043680663 0.2481588439 1
69.8273627758 91.3788268566 9.9719214791 0.2349637157 1
73.2756187916 91.3788268566 10.0477270109 0.2713811733 1
76.7238748074 91.3788268566 10.1354807794 0.3353152005 1
80.1721308231 91.3788268566 -11.4296858084 28.5458306081 1
83.6203868389 91.3788268566 9.749876109 0.1931339261 1
87.0686428547 91.3788268566 9.901130918 0.205506928 1
90.5168988705 91.3788268566 10.0126002917 0.2551715818 1
93.9651548862 91.3788268566 9.8862723542 0.3168173572 1
97.413410902 91.3788268566 9.9020955463 0.3183108868 1
100.8616669178 91.3788268566 9.8782867667 0.3535390016 1
104.3099229336 91.3788268566 9.9273129024 0.3366059389 1
107.7581789494 91.3788268566 9.9463423874 0.2946994175 1
111.2064349651 91.3788268566 9.9240189161 0.3501299176 1
114.6546909809 91.3788268566 9.9372935165 0.3225969056 1
118.1029469967 91.3788268566 9.9911373127 0.3619329118 1
121.5512030125 91.3788268566 9.9942887971 0.35684669 1
124.9994590282 91.3788268566 9.9897835446 0.3086892679 1
128.447715044 91.3788268566 9.9817869955 0.361752044 1
131.8959710598 91.3788268566 10.0189745115 0.3429856395 1
135.3442270756 91.3788268566 0 -0 0
-37.0685737133 87.9305708408 9.5303245223 -0.0268588684 1
-33.6203176975 87.9305708408 9.5234625076 0.1850551644 1
-30.1720616817 87.9305708408 9.500662203 0.0522516115 1
-26.723805666 87.9305708408 9.5272607314 0.2397895975 1
-23.2755496502 87.9305708408 9.4361910533 0.2072772401 1
-19.8272936344 87.9305708408 9.2593297484 0.2191076385 1
-16.3790376186 87.9305708408 11.3394903246 12.8865814241 1
-12.9307816029 87.9305708408 -4.0771384067 -10.0824591095 1
-9.4825255871 87.9305708408 17.3297825575 -18.7073265363 1
-6.0342695713 87.9305708408 -1.6790177176 0.2654097955 1
-2.5860135555 87.9305708408 9.4793088408 0.5106007632 1
0.8622424603 87.9305708408 9.6838319575 0.609905407 1
4.310498476 87.9305708408 9.6420788998 0.5094251225 1
7.7587544918 87.9305708408 9.7189093492 0.5037798547 1
11.2070105076 87.9305708408 9.7961563426 0.600270086 1
14.6552665234 87.9305708408 9.8024812348 0.5157363125 1
18.1035225391 87.9305708408 9.8088609354 0.5373335722 1
21.5517785549 87.9305708408 9.8975245237 0.5199154549 1
25.0000345707 87.9305708408 9.8679882637 0.4062701868 1
28.4482905865 87.9305708408 9.9737137145 0.4289142873 1
31.8965466022 87.9305708408 10.0696832658 0.3817023105 1
35.344802618 87.9305708408 10.0455017889 0.4492180682 1
38.7930586338 87.9305708408 9.9546184595 0.3280503438 1
42.2413146496 87.9305708408 10.0806723549 0.3290834826 1
45.6895706654 87.9305708408 10.0643010785 0.3117640205 1
49.1378266811 87.9305708408 10.0501824284 0.3225092121 1
52.5860826969 87.9305708408 10.0354005963 0.2433658472 1
56.0343387127 87.9305708408 10.0886305381 0.259720681 1
59.4825947285 87.9305708408 10.0680499747 0.1318526267 1
62.9308507442 87.9305708408 9.9872842804 0.2180196913 1
66.37910676 87.9305708408 9.9608721007 0.2045011934 1
69.8273627758 87.9305708408 9.9376497712 0.2632722669 1
73.2756187916 87.9305708408 9.9140931104 0.2421628022 1
76.7238748074 87.9305708408 9.9251918164 0.1677932511 1
80.1721308231 87.9305708408 -0.5362374037 0.8656332943 1
83.6203868389 87.9305708408 9.7836326177 0.2475175853 1
87.0686428547 87.9305708408 9.8707889742 0.2543056087 1
90.5168988705 87.9305708408 9.8962913341 0.2671938097 1
93.9651548862 87.9305708408 9.937726503 0.2696930738 1
97.413410902 87.9305708408 9.8833729885 0.2964861721 1
100.8616669178 87.9305708408 9.8837950134 0.2849928455 1
104.3099229336 87.9305708408 9.9447419814 0.2615129165 1
107.7581789494 87.9305708408 9.9297792815 0.2861739671 1
111.2064349651 87.9305708408 9.9350244477 0.3258415643 1
114.6546909809 87.9305708408 9.9611571045 0.2868946979 1
118.1029469967 87.9305708408 9.9358630166 0.2920439493 1
121.5512030125 87.9305708408 9.9949684216 0.3177792451 1
124.9994590282 87.9305708408 9.9683644123 0.3201524498 1
128.447715044 87.9305708408 9.9891642094 0.3701870605 1
131.8959710598 87.9305708408 10.0079196523 0.3824723689 1
135.3442270756 87.9305708408 0 -0 0
-37.0685737133 84.4823148251 9.4851349763 -0.1200414113 1
-33.6203176975 84.4823148251 9.510472911 0.0771730021 1
-30.1720616817 84.4823148251 9.465699909 0.1412741949 1
-26.723805666 84.4823148251 9.484625258 0.0659619388 1
-23.2755496502 84.4823148251 9.4130290131 0.1935943169 1
-19.8272936344 84.4823148251 9.4017494393 0.4628461829 1
-16.3790376186 84.4823148251 -0.3158499885 1.1678387256 1
-12.9307816029 84.4823148251 11.6086106505 -21.0689557764 1
-9.4825255871 84.4823148251 0.3574441018 -20.2466320991 1
-6.0342695713 84.4823148251 -0.314597616 -5.7211116177 1
-2.5860135555 84.4823148251 9.4100200306 0.5416579569 1
0.8622424603 84.4823148251 9.6378093235 0.5489200731 1
4.310498476 84.4823148251 9.7367714147 0.5986340545 1
7.7587544918 84.4823148251 9.774611151 0.5491475281 1
11.2070105076 84.4823148251 9.8000203366 0.6215576781 1
14.6552665234 84.4823148251 9.8592792051 0.5900263915 1
18.1035225391 84.4823148251 9.8531571041 0.5394409561 1
21.5517785549 84.4823148251 10.0258420071 0.5241631078 1
25.0000345707 84.4823148251 9.9074886953 0.4501224072 1