TITLE = "B00015"
VARIABLES = "x", "y", "Vx", "Vy", "isValid"
ZONE T="Frame 0", I=51, J=39, F=POINT
-37.0685737133 118.9648749828 0 -0 0
-33.6203176975 118.9648749828 9.7752085628 0.2650069536 1
-30.1720616817 118.9648749828 9.7195615695 0.3332653654 1
-26.723805666 118.9648749828 9.51489047 0.3324679028 1
-23.2755496502 118.9648749828 -2.6657557066 3.018083442 1
-19.8272936344 118.9648749828 -13.3886457752 -13.0876159847 1
-16.3790376186 118.9648749828 -14.4007491031 -14.7228691753 1
-12.9307816029 118.9648749828 5.8353268935 5.643264472 1
-9.4825255871 118.9648749828 -16.9736565982 -1.066349966 1
-6.0342695713 118.9648749828 -3.8667562694 6.4441635362 1
-2.5860135555 118.9648749828 9.696964056 0.4767702632 1
0.8622424603 118.9648749828 9.7424769717 0.3517960937 1
4.310498476 118.9648749828 9.6642105416 0.3795072331 1
7.7587544918 118.9648749828 9.6632842792 0.4533725468 1
11.2070105076 118.9648749828 9.8022236352 0.3506341551 1
14.6552665234 118.9648749828 9.8456373883 0.314161889 1
18.1035225391 118.9648749828 9.7291640054 0.4102026912 1
21.5517785549 118.9648749828 9.7197040714 0.4327865025 1
25.0000345707 118.9648749828 9.7427181288 0.3819489484 1
28.4482905865 118.9648749828 9.9861278227 0.2547550378 1
31.8965466022 118.9648749828 9.8616250057 0.4071361599 1
35.344802618 118.9648749828 9.9810525626 0.4219618387 1
38.7930586338 118.9648749828 9.9160333286 0.4153217981 1
42.2413146496 118.9648749828 9.8312008492 0.2759247917 1
45.6895706654 118.9648749828 10.0164314006 0.3037318459 1
49.1378266811 118.9648749828 9.9154578402 0.3800690195 1
52.5860826969 118.9648749828 9.8694571295 0.3445065732 1
56.0343387127 118.9648749828 9.9583454323 0.3619767585 1
59.4825947285 118.9648749828 9.8259063554 0.3020711506 1
62.9308507442 118.9648749828 10.0093282288 0.290317484 1
66.37910676 118.9648749828 9.9028793068 0.2522393311 1
69.8273627758 118.9648749828 9.6498836194 0.157272774 1
73.2756187916 118.9648749828 2.7717771229 -12.1062437404 1
76.7238748074 118.9648749828 -20.2347167476 -0.3660983521 1
80.1721308231 118.9648749828 9.9880954451 0.2024239541 1
83.6203868389 118.9648749828 9.9785532984 0.3385214933 1
87.0686428547 118.9648749828 9.8914681928 0.371406548 1
90.5168988705 118.9648749828 9.9006705273 0.2561307292 1
93.9651548862 118.9648749828 10.0880879347 0.3295959414 1
97.413410902 118.9648749828 10.0286591601 0.3550599354 1
100.8616669178 118.9648749828 9.8876151606 0.2905476794 1
104.3099229336 118.9648749828 10.0881208198 0.2787474256 1
107.7581789494 118.9648749828 10.0287249302 0.2546125359 1
111.2064349651 118.9648749828 10.0529666963 0.3511548351 1
114.6546909809 118.9648749828 10.0249157447 0.3735495574 1
118.1029469967 118.9648749828 10.0848542377 0.3386804377 1
121.5512030125 118.9648749828 10.0317503552 0.3628043657 1
124.9994590282 118.9648749828 9.9594909284 0.3350822647 1
128.447715044 118.9648749828 10.0458525628 0.4278181189 1
131.8959710598 118.9648749828 10.1116445956 0.3142413613 1
135.3442270756 118.9648749828 0 -0 0
-37.0685737133 115.5166189671 9.4039965848 0.365317332 1
-33.6203176975 115.5166189671 9.5518532714 0.3775752361 1
-30.1720616817 115.5166189671 9.5679888716 0.2884978443 1
-26.723805666 115.5166189671 9.7349736984 0.2169564078 1
-23.2755496502 115.5166189671 -0.2468297396 2.0360343137 1
-19.8272936344 115.5166189671 5.9053172515 10.0902857525 1
-16.3790376186 115.5166189671 5.5507286686 -1.8944257874 1
-12.9307816029 115.5166189671 -0.2916000011 24.980460384 1
-9.4825255871 115.5166189671 17.5312254407 -6.993341209 1
-6.0342695713 115.5166189671 -0.0234936311 -10.6808848921 1
-2.5860135555 115.5166189671 9.5117389856 0.4587985808 1
0.8622424603 115.5166189671 9.7357245738 0.3422923129 1
4.310498476 115.5166189671 9.687991917 0.3922227876 1
7.7587544918 115.5166189671 9.7125899379 0.4917932523 1
11.2070105076 115.5166189671 9.6952704757 0.320823853 1
14.6552665234 115.5166189671 9.7842683954 0.3682276594 1
18.1035225391 115.5166189671 9.8770480963 0.4741997481 1
21.5517785549 115.5166189671 9.8418994537 0.3619740181 1
25.0000345707 115.5166189671 9.8657740034 0.2934689684 1
28.4482905865 115.5166189671 9.9842478937 0.3694964744 1
31.8965466022 115.5166189671 9.946737008 0.3215281413 1
35.344802618 115.5166189671 9.985141271 0.3346986057 1
38.7930586338 115.5166189671 9.9896903703 0.3047403209 1
42.2413146496 115.5166189671 10.0132744353 0.3218021834 1
45.6895706654 115.5166189671 9.9231200579 0.3736180679 1
49.1378266811 115.5166189671 9.9225116844 0.2979385954 1
52.5860826969 115.5166189671 10.0152091727 0.3466221784 1
56.0343387127 115.5166189671 9.9229391901 0.3434679536 1
59.4825947285 115.5166189671 9.8676374898 0.2882265426 1
62.9308507442 115.5166189671 10.229000394 0.3405521454 1
66.37910676 115.5166189671 9.9973964348 0.3845359061 1
69.8273627758 115.5166189671 9.8900267312 0.330966152 1
73.2756187916 115.5166189671 -6.4042136756 21.0403156342 1
76.7238748074 115.5166189671 -2.7009591577 -2.7459349508 1
80.1721308231 115.5166189671 9.7655622801 0.2869659488 1
83.6203868389 115.5166189671 9.9156880356 0.3327885321 1
87.0686428547 115.5166189671 9.9602253613 0.3007749314 1
90.5168988705 115.5166189671 9.9177104664 0.2898132465 1
93.9651548862 115.5166189671 9.9315824787 0.3469592502 1
97.413410902 115.5166189671 9.894279865 0.2627241827 1
100.8616669178 115.5166189671 9.998920109 0.2794818585 1
104.3099229336 115.5166189671 10.0403936437 0.2784487197 1
107.7581789494 115.5166189671 10.0525117864 0.3316512573 1
111.2064349651 115.5166189671 9.9975389367 0.3206018789 1
114.6546909809 115.5166189671 10.004033735 0.3559368702 1
118.1029469967 115.5166189671 10.056003083 0.261633495 1
121.5512030125 115.5166189671 10.0519801447 0.3139645787 1
124.9994590282 115.5166189671 10.037740916 0.3957634118 1
128.447715044 115.5166189671 10.022504174 0.3983284461 1
131.8959710598 115.5166189671 9.9669393933 0.3295630563 1
135.3442270756 115.5166189671 0 -0 0
-37.0685737133 112.0683629513 9.6292866135 0.2035804118 1
-33.6203176975 112.0683629513 9.5997777578 0.4622186265 1
-30.1720616817 112.0683629513 9.5995420816 0.2819345355 1
-26.723805666 112.0683629513 9.6381655783 0.2671444821 1
-23.2755496502 112.0683629513 -2.2520206124 0.6746314159 1
-19.8272936344 112.0683629513 -19.9504446329 -5.3934997413 1
-16.3790376186 112.0683629513 -11.1509383828 -10.0808696652 1
-12.9307816029 112.0683629513 17.3381243997 -3.6963459161 1
-9.4825255871 112.0683629513 -3.0852045791 2.8182820711 1
-6.0342695713 112.0683629513 0.5983408295 -12.8809882244 1
-2.5860135555 112.0683629513 9.5941270092 0.5031358558 1
0.8622424603 112.0683629513 9.7041768447 0.2638285724 1
4.310498476 112.0683629513 9.8470624073 0.3826779005 1
7.7587544918 112.0683629513 9.7031354846 0.3659832544 1
11.2070105076 112.0683629513 9.6756929065 0.4599139322 1
14.6552665234 112.0683629513 9.7461162511 0.4933607732 1
18.1035225391 112.0683629513 9.7752633712 0.4713853355 1
21.5517785549 112.0683629513 9.8439657313 0.4337292074 1
25.0000345707 112.0683629513 9.9017283299 0.3671835589 1
28.4482905865 112.0683629513 9.8454948863 0.3851305775 1
31.8965466022 112.0683629513 9.8396577891 0.3354604428 1
35.344802618 112.0683629513 9.8995579162 0.349280387 1
38.7930586338 112.0683629513 9.9677724813 0.3960730794 1
42.2413146496 112.0683629513 9.8568676344 0.2929318458 1
45.6895706654 112.0683629513 9.8718138918 0.3606503947 1
49.1378266811 112.0683629513 9.9083656301 0.2923453957 1
52.5860826969 112.0683629513 9.8613783678 0.3505656446 1
56.0343387127 112.0683629513 9.9067707049 0.3402918054 1
59.4825947285 112.0683629513 9.8777770484 0.3543118004 1
62.9308507442 112.0683629513 10.1349272143 0.37987719 1
66.37910676 112.0683629513 9.9248739275 0.3390695775 1
69.8273627758 112.0683629513 9.8610166322 0.1925885823 1
73.2756187916 112.0683629513 -2.7920973463 11.2235348814 1
76.7238748074 112.0683629513 2.6890766912 -6.5923244097 1
80.1721308231 112.0683629513 -0.4322548608 6.9080784834 1
83.6203868389 112.0683629513 9.965070426 0.2636038579 1
87.0686428547 112.0683629513 9.9978349022 0.2985880752 1
90.5168988705 112.0683629513 9.9104154651 0.3974898772 1
93.9651548862 112.0683629513 9.9469891268 0.3135343326 1
97.413410902 112.0683629513 9.956268193 0.3300124854 1
100.8616669178 112.0683629513 9.9305411186 0.3398122317 1
104.3099229336 112.0683629513 9.9740041992 0.305918702 1
107.7581789494 112.0683629513 9.9754346991 0.2782240051 1
111.2064349651 112.0683629513 9.9671860312 0.3424704403 1
114.6546909809 112.0683629513 10.0697216317 0.3225557992 1
118.1029469967 112.0683629513 10.0507633977 0.3241534648 1
121.5512030125 112.0683629513 9.9706170386 0.2767386968 1
124.9994590282 112.0683629513 10.0955363996 0.3758487708 1
128.447715044 112.0683629513 9.9685178759 0.2942965756 1
131.8959710598 112.0683629513 9.9582193729 0.3078287756 1
135.3442270756 112.0683629513 0 -0 0
-37.0685737133 108.6201069355 9.5831543626 0.2116153269 1
-33.6203176975 108.6201069355 9.6285412189 0.1890616602 1
-30.1720616817 108.6201069355 9.6900362712 0.2343060146 1
-26.723805666 108.6201069355 9.5829296481 0.2948556215 1
-23.2755496502 108.6201069355 9.5306643345 0.1287395082 1
-19.8272936344 108.6201069355 -3.2249742827 -8.7260821442 1
-16.3790376186 108.6201069355 5.5622658419 -0.9746417697 1
-12.9307816029 108.6201069355 6.2021925635 -1.2842737425 1
-9.4825255871 108.6201069355 5.8144174795 -1.0743766597 1
-6.0342695713 108.6201069355 -0.3863692478 -3.2652721768 1
-2.5860135555 108.6201069355 9.5589400007 0.3374499886 1
0.8622424603 108.6201069355 9.6839470552 0.3333283951 1
4.310498476 108.6201069355 9.7934926532 0.3810774945 1
7.7587544918 108.6201069355 9.8019660356 0.3959196158 1
11.2070105076 108.6201069355 9.763200037 0.3597296131 1
14.6552665234 108.6201069355 9.7370125718 0.4588287254 1
18.1035225391 108.6201069355 9.8321599967 0.4524654673 1
21.5517785549 108.6201069355 9.8011439093 0.4530848025 1
25.0000345707 108.6201069355 9.8327245234 0.4306325314 1
28.4482905865 108.6201069355 9.7716624578 0.3466660252 1
31.8965466022 108.6201069355 9.9176282538 0.3668766317 1
35.344802618 108.6201069355 9.9158031333 0.3587677253 1
38.7930586338 108.6201069355 9.9776051127 0.3778437974 1
42.2413146496 108.6201069355 9.9440404335 0.2991361595 1
45.6895706654 108.6201069355 9.9493349273 0.3045758956 1
49.1378266811 108.6201069355 10.0461101624 0.4057796514 1
52.5860826969 108.6201069355 9.9790246509 0.3495982759 1
56.0343387127 108.6201069355 9.9750674826 0.3635963475 1
59.4825947285 108.6201069355 9.978114831 0.2276166464 1
62.9308507442 108.6201069355 10.0180208449 0.3687894457 1
66.37910676 108.6201069355 10.0274150088 0.3017176363 1
69.8273627758 108.6201069355 9.8961323897 0.3042881514 1
73.2756187916 108.6201069355 9.834341372 0.3575290549 1
76.7238748074 108.6201069355 -2.3909161217 11.3230752015 1
80.1721308231 108.6201069355 -3.1134446198 8.4961498419 1
83.6203868389 108.6201069355 9.8763794335 0.2851654921 1
87.0686428547 108.6201069355 9.9457011288 0.2597234214 1
90.5168988705 108.6201069355 9.9869115832 0.3038030968 1
93.9651548862 108.6201069355 9.9079874519 0.2862616606 1
97.413410902 108.6201069355 9.9628890507 0.2563335204 1
100.8616669178 108.6201069355 9.9888901673 0.2900324802 1
104.3099229336 108.6201069355 10.0511525375 0.2939512825 1
107.7581789494 108.6201069355 10.0383821746 0.2999582858 1
111.2064349651 108.6201069355 10.0208325171 0.3566027925 1
114.6546909809 108.6201069355 9.9374305375 0.3452519678 1
118.1029469967 108.6201069355 9.9409437576 0.3448052792 1
121.5512030125 108.6201069355 9.9540758561 0.3425197679 1
124.9994590282 108.6201069355 9.9727764905 0.3552216202 1
128.447715044 108.6201069355 9.9663200581 0.3333366163 1
131.8959710598 108.6201069355 10.0550055697 0.2910299935 1
135.3442270756 108.6201069355 0 -0 0
-37.0685737133 105.1718509197 9.5092342406 0.1738742458 1
-33.6203176975 105.1718509197 9.5260165801 0.0968821115 1
-30.1720616817 105.1718509197 9.599805162 0.2641026146 1
-26.723805666 105.1718509197 9.6091774026 0.3451122063 1
-23.2755496502 105.1718509197 9.6753804985 0.1462864253 1
-19.8272936344 105.1718509197 -0.5234122324 -15.6221877273 1
-16.3790376186 105.1718509197 -12.0431592438 -1.1473951832 1
-12.9307816029 105.1718509197 -5.8971644984 5.0644628459 1
-9.4825255871 105.1718509197 6.1546681786 9.6959720236 1
-6.0342695713 105.1718509197 -0.8677516399 12.4518985501 1
-2.5860135555 105.1718509197 9.6568278468 0.3734947489 1
0.8622424603 105.1718509197 9.7366069895 0.3939739167 1
4.310498476 105.1718509197 9.7797905471 0.3835740182 1
7.7587544918 105.1718509197 9.7628383014 0.3532594786 1
11.2070105076 105.1718509197 9.6738020159 0.4795901566 1
14.6552665234 105.1718509197 9.8469801947 0.4573872639 1
18.1035225391 105.1718509197 9.8608576877 0.3768490245 1
21.5517785549 105.1718509197 9.8909201085 0.3688031478 1
25.0000345707 105.1718509197 9.8235769974 0.4453020063 1
28.4482905865 105.1718509197 9.7906700194 0.3506451168 1
31.8965466022 105.1718509197 9.8617894309 0.4256888116 1
35.344802618 105.1718509197 10.0085389874 0.3295849797 1
38.7930586338 105.1718509197 10.0681705533 0.2752013205 1
42.2413146496 105.1718509197 9.9410150085 0.3135398134 1
45.6895706654 105.1718509197 9.8819150844 0.3629413868 1
49.1378266811 105.1718509197 9.9785313751 0.3271131197 1
52.5860826969 105.1718509197 9.9882434279 0.3604448631 1
56.0343387127 105.1718509197 9.9558680915 0.3105061671 1
59.4825947285 105.1718509197 9.9808826565 0.3516261876 1
62.9308507442 105.1718509197 9.9911153893 0.2708139061 1
66.37910676 105.1718509197 10.0252391144 0.3368525768 1
69.8273627758 105.1718509197 9.998328178 0.2786761746 1
73.2756187916 105.1718509197 10.0950486046 0.3024739925 1
76.7238748074 105.1718509197 -3.3469339888 15.5160457325 1
80.1721308231 105.1718509197 -0.0456691197 -15.1751647365 1
83.6203868389 105.1718509197 10.059066874 0.3178313131 1
87.0686428547 105.1718509197 9.9742727605 0.3604777481 1
90.5168988705 105.1718509197 9.9439965868 0.3056145152 1
93.9651548862 105.1718509197 9.9282007989 0.2931099732 1
97.413410902 105.1718509197 10.0150995559 0.2695670145 1
100.8616669178 105.1718509197 10.0641805 0.2445661517 1
104.3099229336 105.1718509197 9.9888079546 0.298475718 1
107.7581789494 105.1718509197 9.9603843057 0.3265842184 1
111.2064349651 105.1718509197 9.9283816667 0.3458274563 1
114.6546909809 105.1718509197 10.0014687007 0.3683126124 1
118.1029469967 105.1718509197 9.9638317556 0.3532375553 1
121.5512030125 105.1718509197 9.989525945 0.3853333686 1
124.9994590282 105.1718509197 10.0708013576 0.2898516124 1
128.447715044 105.1718509197 9.9955384292 0.3222132466 1
131.8959710598 105.1718509197 10.0433587795 0.4018197427 1
135.3442270756 105.1718509197 0 -0 0
-37.0685737133 101.7235949039 9.5319632942 0.2772977427 1
-33.6203176975 101.7235949039 9.5609514699 0.3273899023 1
-30.1720616817 101.7235949039 9.6779510136 0.3489515365 1
-26.723805666 101.7235949039 9.6455318305 0.3160801839 1
-23.2755496502 101.7235949039 9.6357704501 0.3195358551 1
-19.8272936344 101.7235949039 -5.9765709437 3.8455810346 1
-16.3790376186 101.7235949039 3.0711791032 11.5305552328 1
-12.9307816029 101.7235949039 2.9894761849 5.6384358498 1
-9.4825255871 101.7235949039 3.1203641834 -11.8804330316 1
-6.0342695713 101.7235949039 -0.4916726738 19.164771349 1
-2.5860135555 101.7235949039 -0.1422936316 -5.2424203193 1
0.8622424603 101.7235949039 9.7059526377 0.415828776 1
4.310498476 101.7235949039 9.7987597428 0.479053034 1
7.7587544918 101.7235949039 9.6988220616 0.3988820112 1
11.2070105076 101.7235949039 9.7267524347 0.4424656703 1
14.6552665234 101.7235949039 9.7480838735 0.4209095169 1
18.1035225391 101.7235949039 9.7825364492 0.4311449902 1
21.5517785549 101.7235949039 9.693938631 0.4267904609 1
25.0000345707 101.7235949039 9.9188175966 0.3960100497 1
28.4482905865 101.7235949039 9.9879474624 0.37838092 1
31.8965466022 101.7235949039 9.8152899636 0.4029844217 1
35.344802618 101.7235949039 9.8875384288 0.382518956 1
38.7930586338 101.7235949039 10.055970198 0.350516317 1
42.2413146496 101.7235949039 9.9189217326 0.3369621936 1
45.6895706654 101.7235949039 9.9955713142 0.3786248175 1
49.1378266811 101.7235949039 9.9321196012 0.3445970071 1
52.5860826969 101.7235949039 9.9505242702 0.2868919574 1
56.0343387127 101.7235949039 10.0525117864 0.3568686134 1
59.4825947285 101.7235949039 9.8918189667 0.275236946 1
62.9308507442 101.7235949039 9.9479373125 0.2560539974 1
66.37910676 101.7235949039 9.9650868685 0.3357043403 1
69.8273627758 101.7235949039 10.0413308678 0.2670485674 1
73.2756187916 101.7235949039 10.1009733953 0.2884430359 1
76.7238748074 101.7235949039 -4.0660698454 18.4985311029 1
80.1721308231 101.7235949039 -2.3522652208 -2.3463924981 1
83.6203868389 101.7235949039 9.9330349019 0.3252057866 1
87.0686428547 101.7235949039 9.9886106443 0.2883827466 1
90.5168988705 101.7235949039 9.964061951 0.2310942409 1
93.9651548862 101.7235949039 9.9369920702 0.259616545 1
97.413410902 101.7235949039 10.0067741562 0.2644396864 1
100.8616669178 101.7235949039 9.9861990736 0.2767112926 1
104.3099229336 101.7235949039 10.0620977798 0.3032988593 1
107.7581789494 101.7235949039 9.9422317555 0.3046361849 1
111.2064349651 101.7235949039 9.9833928823 0.3282586158 1
114.6546909809 101.7235949039 9.9231090962 0.3986655179 1
118.1029469967 101.7235949039 10.0548192211 0.3421224068 1
121.5512030125 101.7235949039 10.0248938213 0.3677289027 1
124.9994590282 101.7235949039 10.0448057219 0.3327912725 1
128.447715044 101.7235949039 10.0118329738 0.3176203006 1
131.8959710598 101.7235949039 10.0392974753 0.3672602907 1
135.3442270756 101.7235949039 0 -0 0
-37.0685737133 98.2753388882 9.7020064311 0.1843070294 1
-33.6203176975 98.2753388882 9.6013507596 0.3069353983 1
-30.1720616817 98.2753388882 9.552215007 0.3911320999 1
-26.723805666 98.2753388882 9.5572080545 0.3218706939 1
-23.2755496502 98.2753388882 9.5609459891 0.1392325811 1
-19.8272936344 98.2753388882 -1.5410155856 -0.9218393336 1
-16.3790376186 98.2753388882 -5.113368403 -6.9834756926 1
-12.9307816029 98.2753388882 8.5306791493 -2.7461761078 1
-9.4825255871 98.2753388882 2.7630022942 -14.3617857941 1
-6.0342695713 98.2753388882 0.030890028 -14.1934691226 1
-2.5860135555 98.2753388882 -0.2233689935 -14.3032942435 1
0.8622424603 98.2753388882 9.611808207 0.4159740183 1
4.310498476 98.2753388882 9.7652279487 0.4868248686 1
7.7587544918 98.2753388882 9.7509667967 0.4439235744 1
11.2070105076 98.2753388882 9.8001025492 0.3848921608 1
14.6552665234 98.2753388882 9.6642489075 0.4649809711 1
18.1035225391 98.2753388882 9.8531351807 0.3400479079 1
21.5517785549 98.2753388882 9.8927178249 0.4125320493 1
25.0000345707 98.2753388882 10.016173801 0.4962135517 1
28.4482905865 98.2753388882 9.9995230016 0.5157993422 1
31.8965466022 98.2753388882 9.8399153887 0.4518625747 1
35.344802618 98.2753388882 9.9856509894 0.3733385449 1
38.7930586338 98.2753388882 9.9157976524 0.4052151246 1
42.2413146496 98.2753388882 10.0683404594 0.3421196664 1
45.6895706654 98.2753388882 10.0427120401 0.3387434674 1
49.1378266811 98.2753388882 9.9037672032 0.3284559261 1
52.5860826969 98.2753388882 9.9632781905 0.3281380373 1
56.0343387127 98.2753388882 9.9702443413 0.3925351956 1
59.4825947285 98.2753388882 9.9427688781 0.3142550634 1
62.9308507442 98.2753388882 10.0154119639 0.2599947231 1
66.37910676 98.2753388882 10.0561017382 0.3041374282 1
69.8273627758 98.2753388882 10.0479791297 0.2428342054 1
73.2756187916 98.2753388882 10.0301389875 0.2626501913 1
76.7238748074 98.2753388882 -4.8298005765 16.8807946847 1
80.1721308231 98.2753388882 -2.7492974476 -2.5443495656 1
83.6203868389 98.2753388882 9.8442342926 0.277949963 1
87.0686428547 98.2753388882 9.9720804235 0.2182992142 1
90.5168988705 98.2753388882 9.9852673304 0.2783939112 1
93.9651548862 98.2753388882 9.9758841282 0.2688490241 1
97.413410902 98.2753388882 9.946112192 0.264105355 1
100.8616669178 98.2753388882 9.9344434784 0.3371759465 1
104.3099229336 98.2753388882 9.9505187893 0.3400479079 1
107.7581789494 98.2753388882 9.9514286092 0.3179244874 1
111.2064349651 98.2753388882 9.9650430218 0.362291907 1
114.6546909809 98.2753388882 10.0380478432 0.3364360327 1
118.1029469967 98.2753388882 9.98903815 0.3256223306 1
121.5512030125 98.2753388882 9.9942997588 0.3564191843 1
124.9994590282 98.2753388882 10.0196650976 0.3502395344 1
128.447715044 98.2753388882 10.0607823776 0.3603325058 1
131.8959710598 98.2753388882 10.0495247273 0.380521189 1
135.3442270756 98.2753388882 0 -0 0
-37.0685737133 94.8270828724 9.5612693588 0.2250324292 1
-33.6203176975 94.8270828724 9.5498418023 0.3240630309 1
-30.1720616817 94.8270828724 9.5452433754 0.2251310843 1
-26.723805666 94.8270828724 9.4885933879 0.3664025388 1
-23.2755496502 94.8270828724 9.4489614162 0.321571988 1
-19.8272936344 94.8270828724 -1.1840126916 9.398611657 1
-16.3790376186 94.8270828724 6.1658874631 9.8956692585 1
-12.9307816029 94.8270828724 -25.4505878661 -9.6550794581 1
-9.4825255871 94.8270828724 3.2855677364 -11.7918735793 1
-6.0342695713 94.8270828724 -0.0529915252 17.6288118405 1
-2.5860135555 94.8270828724 0.0435918804 17.5322558391 1
0.8622424603 94.8270828724 9.6170862582 0.4516515622 1
4.310498476 94.8270828724 9.6409388846 0.4762605448 1
7.7587544918 94.8270828724 9.7040453045 0.4795901566 1
11.2070105076 94.8270828724 9.7989406106 0.4979838639 1
14.6552665234 94.8270828724 9.8358266803 0.5144099487 1
18.1035225391 94.8270828724 9.889686919 0.3715161648 1
21.5517785549 94.8270828724 9.8969599969 0.4156670911 1
25.0000345707 94.8270828724 9.9416507862 0.4081309328 1
28.4482905865 94.8270828724 10.0630952932 0.3482472482 1
31.8965466022 94.8270828724 10.0414678889 0.3889178396 1
35.344802618 94.8270828724 9.9877063053 0.3800772407 1
38.7930586338 94.8270828724 10.0513279244 0.4286375048 1
42.2413146496 94.8270828724 10.0089993782 0.4197832038 1
45.6895706654 94.8270828724 9.9702991497 0.3381871619 1
49.1378266811 94.8270828724 9.9873884164 0.3055898515 1
52.5860826969 94.8270828724 10.0579597438 0.3755363628 1
56.0343387127 94.8270828724 10.0588257169 0.2520365399 1
59.4825947285 94.8270828724 10.0919957754 0.2637079939 1
62.9308507442 94.8270828724 9.9977252853 0.266486781 1
66.37910676 94.8270828724 10.0886798657 0.2885663548 1
69.8273627758 94.8270828724 9.9500858028 0.184720833 1
73.2756187916 94.8270828724 10.0517170642 0.2913561036 1
76.7238748074 94.8270828724 10.0037706545 0.2254188286 1
80.1721308231 94.8270828724 -1.6671845788 6.0125773382 1
83.6203868389 94.8270828724 9.7480783927 0.2830855124 1
87.0686428547 94.8270828724 9.9079929328 0.3006159869 1
90.5168988705 94.8270828724 9.9805428442 0.2748642487 1
93.9651548862 94.8270828724 9.996031705 0.3040634368 1
97.413410902 94.8270828724 9.9737191954 0.2649603664 1
100.8616669178 94.8270828724 9.9376114053 0.2717155047 1
104.3099229336 94.8270828724 9.9664077516 0.3013367177 1
107.7581789494 94.8270828724 9.8953157442 0.3361565098 1
111.2064349651 94.8270828724 9.9920252092 0.3097607726 1
114.6546909809 94.8270828724 10.0024716949 0.3145236246 1
118.1029469967 94.8270828724 10.0147268586 0.2926906888 1
121.5512030125 94.8270828724 9.9723160997 0.3428924651 1
124.9994590282 94.8270828724 9.9251424888 0.3643636654 1
128.447715044 94.8270828724 10.0298704263 0.3662901815 1
131.8959710598 94.8270828724 10.0081608093 0.3897290043 1
135.3442270756 94.8270828724 0 -0 0
-37.0685737133 91.3788268566 9.586168826 0.0512678002 1
-33.6203176975 91.3788268566 9.6584611379 0.0150723167 1
-30.1720616817 91.3788268566 9.5229911551 0.3598995193 1
-26.723805666 91.3788268566 9.62067621 0.2447908662 1
-23.2755496502 91.3788268566 9.5505597926 0.4168920594 1
-19.8272936344 91.3788268566 9.4883083841 0.2480136015 1
-16.3790376186 91.3788268566 0.3535115974 -20.7871144153 1
-12.9307816029 91.3788268566 14.0483090104 -6.5754214916 1
-9.4825255871 91.3788268566 14.9462792751 -0.1095373767 1
-6.0342695713 91.3788268566 -1.0788325847 11.5616343498 1
-2.5860135555 91.3788268566 -1.2248093424 -23.7996978319 1
0.8622424603 91.3788268566 9.6697023457 0.552647046 1
4.310498476 91.3788268566 9.6904911811 0.5433789414 1
7.7587544918 91.3788268566 9.7351436045 0.5781740697 1
11.2070105076 91.3788268566 9.7601965354 0.4795791949 1
14.6552665234 91.3788268566 9.7033492375 0.4599824427 1
18.1035225391 91.3788268566 9.8505208189 0.4156150231 1
21.5517785549 91.3788268566 9.8555741556 0.4369355003 1
25.0000345707 91.3788268566 10.0180208449 0.3261210873 1
28.4482905865 91.3788268566 10.0641147299 0.3538678521 1
31.8965466022 91.3788268566 10.0246910301 0.3365812751 1
35.344802618 91.3788268566 9.9679040216 0.3534622698 1
38.7930586338 91.3788268566 10.0012275436 0.361804112 1
42.2413146496 91.3788268566 10.0488779879 0.424559758 1
45.6895706654 91.3788268566 10.0236715934 0.3404754136 1
49.1378266811 91.3788268566 10.017911228 0.3265979205 1
52.5860826969 91.3788268566 10.0413801954 0.3078369969 1
56.0343387127 91.3788268566 10.080946397 0.351108248 1
59.4825947285 91.3788268566 9.9917621287 0.169588227 1
62.9308507442 91.3788268566 10.0641805 0.2869001787 1
66.37910676 91.3788268566 9.990397399 0.2515898512 1
69.8273627758 91.3788268566 9.9628177998 0.2135473238 1
73.2756187916 91.3788268566 10.0099530448 0.2483753372 1
76.7238748074 91.3788268566 10.0136800177 0.2217658471 1
80.1721308231 91.3788268566 0.5036757187 -3.7295433788 1
83.6203868389 91.3788268566 9.8690131813 0.1758117236 1
87.0686428547 91.3788268566 9.8902898117 0.2889472734 1
90.5168988705 91.3788268566 9.9646209969 0.2982427822 1
93.9651548862 91.3788268566 9.9328814383 0.2916191841 1
97.413410902 91.3788268566 9.9625108726 0.2592575498 1
100.8616669178 91.3788268566 9.9588113039 0.3427170782 1
104.3099229336 91.3788268566 9.9376826563 0.3093469689 1
107.7581789494 91.3788268566 10.0182784445 0.285880742 1
111.2064349651 91.3788268566 9.9363672541 0.3433884814 1
114.6546909809 91.3788268566 9.9125091469 0.345402691 1
118.1029469967 91.3788268566 10.0215011798 0.306666837 1
121.5512030125 91.3788268566 9.9930830118 0.3617383419 1
124.9994590282 91.3788268566 10.0186566226 0.4079939117 1
128.447715044 91.3788268566 10.0125180791 0.4243076393 1
131.8959710598 91.3788268566 10.0462800685 0.3459288519 1
135.3442270756 91.3788268566 0 -0 0
-37.0685737133 87.9305708408 9.6686555048 -0.0175277341 1
-33.6203176975 87.9305708408 9.5439498966 0.1478813505 1
-30.1720616817 87.9305708408 9.4646530681 0.2751684355 1
-26.723805666 87.9305708408 9.4692186099 0.3235533126 1
-23.2755496502 87.9305708408 9.5058306374 0.3734125363 1
-19.8272936344 87.9305708408 9.5210947836 0.256695256 1
-16.3790376186 87.9305708408 -8.553720611 -5.9817421186 1
-12.9307816029 87.9305708408 -17.7821959568 10.1452613427 1
-9.4825255871 87.9305708408 0.1524578539 6.5410456477 1
-6.0342695713 87.9305708408 -1.5736704449 -4.8544862909 1
-2.5860135555 87.9305708408 -1.5312076181 -4.5999340443 1
0.8622424603 87.9305708408 9.6408457102 0.5062873402 1
4.310498476 87.9305708408 9.7046975247 0.498394927 1
7.7587544918 87.9305708408 9.7963262488 0.5740716591 1
11.2070105076 87.9305708408 9.7804646907 0.5262650109 1
14.6552665234 87.9305708408 9.7745673042 0.5102801339 1
18.1035225391 87.9305708408 9.8702902176 0.4997185505 1
21.5517785549 87.9305708408 9.9879584241 0.546733217 1
25.0000345707 87.9305708408 10.0278918421 0.4054480604 1
28.4482905865 87.9305708408 10.0087856254 0.3898386211 1
31.8965466022 87.9305708408 10.0172918928 0.4190569922 1
35.344802618 87.9305708408 10.0140636766 0.3715517903 1
38.7930586338 87.9305708408 9.9903754756 0.3923241832 1
42.2413146496 87.9305708408 10.0182620019 0.3561615847 1
45.6895706654 87.9305708408 10.0879783179 0.3483733076 1
49.1378266811 87.9305708408 10.0954377444 0.2885197677 1
52.5860826969 87.9305708408 10.0622786476 0.2145886839 1
56.0343387127 87.9305708408 10.0553508628 0.2426999248 1
59.4825947285 87.9305708408 10.0949937962 0.1777163163 1
62.9308507442 87.9305708408 10.1422331772 0.2902352713 1
66.37910676 87.9305708408 9.9677998855 0.2593123583 1
69.8273627758 87.9305708408 10.0100352574 0.2846256291 1
73.2756187916 87.9305708408 10.1047387341 0.1937998485 1
76.7238748074 87.9305708408 9.9039535519 0.2094092878 1
80.1721308231 87.9305708408 -1.5509057658 9.2330929556 1
83.6203868389 87.9305708408 9.7729668983 0.1622713023 1
87.0686428547 87.9305708408 9.9254055692 0.2433220004 1
90.5168988705 87.9305708408 9.9723709081 0.2290142612 1
93.9651548862 87.9305708408 9.9036904714 0.2613594529 1
97.413410902 87.9305708408 9.9095768962 0.2693916275 1
100.8616669178 87.9305708408 9.9297409156 0.3006954591 1
104.3099229336 87.9305708408 9.9549199058 0.3253208843 1
107.7581789494 87.9305708408 9.9304040975 0.3769750839 1
111.2064349651 87.9305708408 9.9871088935 0.3210677505 1
114.6546909809 87.9305708408 9.9909619257 0.331747172 1
118.1029469967 87.9305708408 9.9682219104 0.3254496841 1
121.5512030125 87.9305708408 9.9251041229 0.3116708461 1
124.9994590282 87.9305708408 10.0372037934 0.3307715821 1
128.447715044 87.9305708408 10.0766823016 0.3728891159 1
131.8959710598 87.9305708408 9.9853495431 0.3504341043 1
135.3442270756 87.9305708408 0 -0 0
-37.0685737133 84.4823148251 9.4935699929 -0.1568671917 1
-33.6203176975 84.4823148251 9.4511701957 0.0022032987 1
-30.1720616817 84.4823148251 9.4645270087 0.1988888107 1
-26.723805666 84.4823148251 9.5049865877 0.110397869 1
-23.2755496502 84.4823148251 9.4622140932 0.2885882782 1
-19.8272936344 84.4823148251 9.3880254099 0.2958120285 1
-16.3790376186 84.4823148251 0.1696046695 1.6604760276 1
-12.9307816029 84.4823148251 2.9121469788 11.8504446021 1
-9.4825255871 84.4823148251 2.9818742564 -5.6965135968 1
-6.0342695713 84.4823148251 -0.1230284704 -8.1032830553 1
-2.5860135555 84.4823148251 -2.4398134576 -12.7048777949 1
0.8622424603 84.4823148251 9.6015316274 0.5011764546 1
4.310498476 84.4823148251 9.7391007728 0.4966657212 1
7.7587544918 84.4823148251 9.653862711 0.5650775967 1
11.2070105076 84.4823148251 9.8716768707 0.5869900048 1
14.6552665234 84.4823148251 9.8246676851 0.5082823668 1
18.1035225391 84.4823148251 9.9811566986 0.5290109129 1
21.5517785549 84.4823148251 10.0796200331 0.473750319 1