TITLE = "B00002"
VARIABLES = "x", "y", "Vx", "Vy", "isValid"
ZONE T="Frame 0", I=51, J=39, F=POINT
-37.0685737133 118.9648749828 0 -0 0
-33.6203176975 118.9648749828 0.0905006767 0.104260503 1
-30.1720616817 118.9648749828 0.0801669818 0.0705854523 1
-26.723805666 118.9648749828 0.1149506935 0.0835099532 1
-23.2755496502 118.9648749828 5.3182666149 7.2374442294 1
-19.8272936344 118.9648749828 6.0074719335 9.3043137628 1
-16.3790376186 118.9648749828 7.2997230421 7.35614763 1
-12.9307816029 118.9648749828 11.2625694413 6.7457366153 1
-9.4825255871 118.9648749828 8.1396230961 7.7711652413 1
-6.0342695713 118.9648749828 4.1665857555 4.0610767979 1
-2.5860135555 118.9648749828 0.1103595887 0.0723685941 1
0.8622424603 118.9648749828 0.0586199275 0.0520980248 1
4.310498476 118.9648749828 0.0619905493 0.0585340004 1
7.7587544918 118.9648749828 0.0662061093 0.0484321761 1
11.2070105076 118.9648749828 0.0784104949 0.046556984 1
14.6552665234 118.9648749828 0.0465583971 0.0549091403 1
18.1035225391 118.9648749828 0.0717494569 0.0384712347 1
21.5517785549 118.9648749828 0.0782267261 0.0509685912 1
25.0000345707 118.9648749828 0.079050758 0.0408960338 1
28.4482905865 118.9648749828 0.0659703903 0.0604696155 1
31.8965466022 118.9648749828 0.06992424 0.0558357024 1
35.344802618 118.9648749828 0.0766287341 0.0569220118 1
38.7930586338 118.9648749828 0.0832370939 0.0510551982 1
42.2413146496 118.9648749828 0.0589659271 0.0632049413 1
45.6895706654 118.9648749828 0.0754298373 0.0454272079 1
49.1378266811 118.9648749828 0.0776526079 0.0584353559 1
52.5860826969 118.9648749828 0.0740656213 0.056626239 1
56.0343387127 118.9648749828 0.1049509071 0.0647634006 1
59.4825947285 118.9648749828 0.0625525498 0.0607010206 1
62.9308507442 118.9648749828 0.0781397231 0.0793528198 1
66.37910676 118.9648749828 0.0787022481 0.0897760976 1
69.8273627758 118.9648749828 0.1158205845 0.0807098796 1
73.2756187916 118.9648749828 2.9968366137 10.359260836 1
76.7238748074 118.9648749828 10.0713768461 6.9291571184 1
80.1721308231 118.9648749828 0.1445486129 0.0990724253 1
83.6203868389 118.9648749828 0.0620899324 0.0245989924 1
87.0686428547 118.9648749828 0.0513774117 0.0427100803 1
90.5168988705 118.9648749828 0.055274751 0.0468454562 1
93.9651548862 118.9648749828 0.061393009 0.036296194 1
97.413410902 118.9648749828 0.0557049597 0.0335988755 1
100.8616669178 118.9648749828 0.0517793866 0.0383490104 1
104.3099229336 118.9648749828 0.0359352853 0.0253732336 1
107.7581789494 118.9648749828 0.0711035043 0.0333371626 1
111.2064349651 118.9648749828 0.0460705379 0.0416242018 1
114.6546909809 118.9648749828 0.0646974539 0.0386020711 1
118.1029469967 118.9648749828 0.0583410201 0.025294013 1
121.5512030125 118.9648749828 0.0430185195 0.0348221846 1
124.9994590282 118.9648749828 0.0537066146 0.0306192 1
128.447715044 118.9648749828 0.048104851 0.044326977 1
131.8959710598 118.9648749828 0.0603847374 0.0354008791 1
135.3442270756 118.9648749828 0 -0 0
-37.0685737133 115.5166189671 0.0987926775 0.0947331931 1
-33.6203176975 115.5166189671 0.0680026481 0.1036887505 1
-30.1720616817 115.5166189671 0.0656055235 0.0768547492 1
-26.723805666 115.5166189671 0.0842885111 0.0699571679 1
-23.2755496502 115.5166189671 3.3699394825 6.5617104791 1
-19.8272936344 115.5166189671 10.6162726107 7.0795391032 1
-16.3790376186 115.5166189671 8.4218282481 9.719038149 1
-12.9307816029 115.5166189671 9.277335686 9.0612246981 1
-9.4825255871 115.5166189671 8.2637511605 9.2329867643 1
-6.0342695713 115.5166189671 2.8967886306 8.4524120341 1
-2.5860135555 115.5166189671 0.1028568721 0.0646669399 1
0.8622424603 115.5166189671 0.048708659 0.0488356978 1
4.310498476 115.5166189671 0.0426432718 0.0399681283 1
7.7587544918 115.5166189671 0.0324573991 0.0557813703 1
11.2070105076 115.5166189671 0.0612655206 0.0559700901 1
14.6552665234 115.5166189671 0.0660811311 0.0507235376 1
18.1035225391 115.5166189671 0.0881470563 0.0645907702 1
21.5517785549 115.5166189671 0.05437228 0.0550741704 1
25.0000345707 115.5166189671 0.0528294175 0.0479136906 1
28.4482905865 115.5166189671 0.1007083176 0.0598494775 1
31.8965466022 115.5166189671 0.0659032446 0.0576390494 1
35.344802618 115.5166189671 0.0533956999 0.0440937414 1
38.7930586338 115.5166189671 0.0722803279 0.0528429376 1
42.2413146496 115.5166189671 0.0610580996 0.0494786745 1
45.6895706654 115.5166189671 0.0536878652 0.0634480627 1
49.1378266811 115.5166189671 0.0564712179 0.0554527018 1
52.5860826969 115.5166189671 0.0570262334 0.06960003 1
56.0343387127 115.5166189671 0.0588592541 0.0375955765 1
59.4825947285 115.5166189671 0.0566042675 0.0640274958 1
62.9308507442 115.5166189671 0.0917726497 0.0540243161 1
66.37910676 115.5166189671 0.0743796404 0.0607627175 1
69.8273627758 115.5166189671 0.0691360157 0.0639903771 1
73.2756187916 115.5166189671 3.3722630171 12.647190558 1
76.7238748074 115.5166189671 8.1334297441 8.9837050328 1
80.1721308231 115.5166189671 4.0371327101 1.3901063266 1
83.6203868389 115.5166189671 0.0619283171 0.0472147975 1
87.0686428547 115.5166189671 0.054474548 0.0422219829 1
90.5168988705 115.5166189671 0.0486657542 0.0360306755 1
93.9651548862 115.5166189671 0.065492995 0.0328849557 1
97.413410902 115.5166189671 0.0397650213 0.0264824994 1
100.8616669178 115.5166189671 0.0555185254 0.0335358673 1
104.3099229336 115.5166189671 0.0548626762 0.0375977683 1
107.7581789494 115.5166189671 0.0520890916 0.0365606313 1
111.2064349651 115.5166189671 0.0583554287 0.0301900297 1
114.6546909809 115.5166189671 0.0561918394 0.0336388445 1
118.1029469967 115.5166189671 0.0493120333 0.0441718542 1
121.5512030125 115.5166189671 0.0564817888 0.0324544794 1
124.9994590282 115.5166189671 0.0404580482 0.0373762732 1
128.447715044 115.5166189671 0.0441521386 0.0330034361 1
131.8959710598 115.5166189671 0.0474434996 0.0271581336 1
135.3442270756 115.5166189671 0 -0 0
-37.0685737133 112.0683629513 0.0818266548 0.1156847838 1
-33.6203176975 112.0683629513 0.0700967688 0.0886595686 1
-30.1720616817 112.0683629513 0.0666022822 0.0679566283 1
-26.723805666 112.0683629513 0.0691841336 0.0592011912 1
-23.2755496502 112.0683629513 4.9126900973 6.3998084485 1
-19.8272936344 112.0683629513 12.4923416865 9.3135037653 1
-16.3790376186 112.0683629513 9.2112257644 10.0252185612 1
-12.9307816029 112.0683629513 6.6536995685 8.2857135813 1
-9.4825255871 112.0683629513 8.4416257361 8.4706289842 1
-6.0342695713 112.0683629513 0.5841273779 8.2344930533 1
-2.5860135555 112.0683629513 0.0833710481 0.076362667 1
0.8622424603 112.0683629513 0.0578057602 0.0590744896 1
4.310498476 112.0683629513 0.0668983815 0.0419729043 1
7.7587544918 112.0683629513 0.0418812795 0.0497877373 1
11.2070105076 112.0683629513 0.0690042828 0.0567829247 1
14.6552665234 112.0683629513 0.0783829623 0.0548246529 1
18.1035225391 112.0683629513 0.0611331935 0.0477567319 1
21.5517785549 112.0683629513 0.0793013727 0.0746181855 1
25.0000345707 112.0683629513 0.0671810677 0.0492104344 1
28.4482905865 112.0683629513 0.062304456 0.0403256489 1
31.8965466022 112.0683629513 0.0427277539 0.0690961832 1
35.344802618 112.0683629513 0.0666269299 0.0557107831 1
38.7930586338 112.0683629513 0.061560528 0.0536329764 1
42.2413146496 112.0683629513 0.0508282998 0.0482440719 1
45.6895706654 112.0683629513 0.0539885622 0.0455549533 1
49.1378266811 112.0683629513 0.0429557815 0.0560691306 1
52.5860826969 112.0683629513 0.058217107 0.0374567008 1
56.0343387127 112.0683629513 0.0670274703 0.0492382882 1
59.4825947285 112.0683629513 0.087626189 0.0497803296 1
62.9308507442 112.0683629513 0.0804220658 0.0481235362 1
66.37910676 112.0683629513 0.0569373571 0.0496356385 1
69.8273627758 112.0683629513 0.0505987307 0.0564572107 1
73.2756187916 112.0683629513 6.3274455708 9.6585474611 1
76.7238748074 112.0683629513 2.8701029226 9.4265858769 1
80.1721308231 112.0683629513 5.1781625799 4.3662549011 1
83.6203868389 112.0683629513 0.0496189231 0.0463531278 1
87.0686428547 112.0683629513 0.0313557337 0.0324213454 1
90.5168988705 112.0683629513 0.0603853422 0.0368987869 1
93.9651548862 112.0683629513 0.044469519 0.0417604708 1
97.413410902 112.0683629513 0.0456753445 0.0375680385 1
100.8616669178 112.0683629513 0.0617693406 0.0339676147 1
104.3099229336 112.0683629513 0.0423256211 0.0418974491 1
107.7581789494 112.0683629513 0.0515140153 0.0290484917 1
111.2064349651 112.0683629513 0.03740983 0.0407986338 1
114.6546909809 112.0683629513 0.0575415504 0.0495097772 1
118.1029469967 112.0683629513 0.0493826474 0.0340500227 1
121.5512030125 112.0683629513 0.0399356848 0.033804078 1
124.9994590282 112.0683629513 0.054293814 0.0436470153 1
128.447715044 112.0683629513 0.0426606751 0.0427080517 1
131.8959710598 112.0683629513 0.0445439493 0.0352032503 1
135.3442270756 112.0683629513 0 -0 0
-37.0685737133 108.6201069355 0.0915416621 0.0758803903 1
-33.6203176975 108.6201069355 0.0634237093 0.0705671471 1
-30.1720616817 108.6201069355 0.0745610863 0.0677128914 1
-26.723805666 108.6201069355 0.0663114389 0.0965986064 1
-23.2755496502 108.6201069355 5.4223210939 2.7013633698 1
-19.8272936344 108.6201069355 10.4916368832 10.0714371354 1
-16.3790376186 108.6201069355 8.8944111477 12.2432826143 1
-12.9307816029 108.6201069355 10.3576480981 8.9168072401 1
-9.4825255871 108.6201069355 8.1682687191 9.1587624554 1
-6.0342695713 108.6201069355 0.5395435935 8.6224078987 1
-2.5860135555 108.6201069355 0.0909370888 0.0498264885 1
0.8622424603 108.6201069355 0.0653397134 0.0532006001 1
4.310498476 108.6201069355 0.0620236752 0.050892582 1
7.7587544918 108.6201069355 0.0585303554 0.0454082177 1
11.2070105076 108.6201069355 0.0615157178 0.0564288109 1
14.6552665234 108.6201069355 0.0637321459 0.0335511697 1
18.1035225391 108.6201069355 0.0479038957 0.0452825437 1
21.5517785549 108.6201069355 0.064519835 0.0484209575 1
25.0000345707 108.6201069355 0.0678860999 0.036951995 1
28.4482905865 108.6201069355 0.0485913668 0.0355303774 1
31.8965466022 108.6201069355 0.0452100991 0.0511002706 1
35.344802618 108.6201069355 0.0488134533 0.047392486 1
38.7930586338 108.6201069355 0.0446431504 0.0439716964 1
42.2413146496 108.6201069355 0.0524759567 0.0458847352 1
45.6895706654 108.6201069355 0.0456131551 0.0462576091 1
49.1378266811 108.6201069355 0.0508562607 0.0358082251 1
52.5860826969 108.6201069355 0.0498699606 0.0535915972 1
56.0343387127 108.6201069355 0.0659524651 0.0517433115 1
59.4825947285 108.6201069355 0.0627319189 0.0663314996 1
62.9308507442 108.6201069355 0.0730333282 0.0533004863 1
66.37910676 108.6201069355 0.0653164465 0.0533330502 1
69.8273627758 108.6201069355 0.0482110477 0.0669874558 1
73.2756187916 108.6201069355 3.2759988706 2.6118937551 1
76.7238748074 108.6201069355 2.8074695679 9.4665144992 1
80.1721308231 108.6201069355 3.8967460691 8.6734187845 1
83.6203868389 108.6201069355 0.0501302364 0.0455288551 1
87.0686428547 108.6201069355 0.036566187 0.0377763319 1
90.5168988705 108.6201069355 0.038929035 0.0351924251 1
93.9651548862 108.6201069355 0.0366745728 0.0261941557 1
97.413410902 108.6201069355 0.0464968714 0.0292219384 1
100.8616669178 108.6201069355 0.0486847284 0.0299472241 1
104.3099229336 108.6201069355 0.055895328 0.0308872475 1
107.7581789494 108.6201069355 0.0496638403 0.0457803958 1
111.2064349651 108.6201069355 0.0491419881 0.0321685443 1
114.6546909809 108.6201069355 0.0363735038 0.0323695022 1
118.1029469967 108.6201069355 0.0382437263 0.0346612731 1
121.5512030125 108.6201069355 0.0458642088 0.0200662821 1
124.9994590282 108.6201069355 0.0432892887 0.0372583361 1
128.447715044 108.6201069355 0.0512452453 0.0343620454 1
131.8959710598 108.6201069355 0.0519584774 0.0343989982 1
135.3442270756 108.6201069355 0 -0 0
-37.0685737133 105.1718509197 0.0714960536 0.0861163132 1
-33.6203176975 105.1718509197 0.0509925164 0.073820541 1
-30.1720616817 105.1718509197 0.0554693049 0.069647131 1
-26.723805666 105.1718509197 0.0292835203 0.0677539709 1
-23.2755496502 105.1718509197 0.0816969665 0.0849456128 1
-19.8272936344 105.1718509197 8.3015100543 10.3129470322 1
-16.3790376186 105.1718509197 9.7909906486 9.8261187381 1
-12.9307816029 105.1718509197 9.4072069882 9.6166039441 1
-9.4825255871 105.1718509197 8.900620257 7.1604979972 1
-6.0342695713 105.1718509197 0.8200694239 7.5005424796 1
-2.5860135555 105.1718509197 0.0872851992 0.0875812985 1
0.8622424603 105.1718509197 0.0466322279 0.0419425295 1
4.310498476 105.1718509197 0.0587652876 0.0436633722 1
7.7587544918 105.1718509197 0.0590172405 0.052727112 1
11.2070105076 105.1718509197 0.0711561075 0.0416962449 1
14.6552665234 105.1718509197 0.0585716116 0.0470151589 1
18.1035225391 105.1718509197 0.062209205 0.0385646687 1
21.5517785549 105.1718509197 0.0578551359 0.0408417928 1
25.0000345707 105.1718509197 0.0673870649 0.063619628 1
28.4482905865 105.1718509197 0.0701005851 0.0440929306 1
31.8965466022 105.1718509197 0.0713592948 0.0408618937 1
35.344802618 105.1718509197 0.0517624944 0.0424848599 1
38.7930586338 105.1718509197 0.0641766347 0.04191907 1
42.2413146496 105.1718509197 0.0460125769 0.0475575964 1
45.6895706654 105.1718509197 0.0559826521 0.0304822218 1
49.1378266811 105.1718509197 0.060692521 0.0393460955 1
52.5860826969 105.1718509197 0.0523276207 0.0485387314 1
56.0343387127 105.1718509197 0.0693719916 0.0490237164 1
59.4825947285 105.1718509197 0.0569741708 0.0393432213 1
62.9308507442 105.1718509197 0.0574908312 0.038195991 1
66.37910676 105.1718509197 0.0505739598 0.0408178275 1
69.8273627758 105.1718509197 0.0624514004 0.051338516 1
73.2756187916 105.1718509197 0.0895985911 0.0504132973 1
76.7238748074 105.1718509197 2.3444087757 10.1017215303 1
80.1721308231 105.1718509197 1.2947359 7.271955039 1
83.6203868389 105.1718509197 0.049225967 0.0428381254 1
87.0686428547 105.1718509197 0.0380680075 0.0361418419 1
90.5168988705 105.1718509197 0.0441072803 0.0304181992 1
93.9651548862 105.1718509197 0.040277836 0.032144959 1
97.413410902 105.1718509197 0.0500433511 0.0286016933 1
100.8616669178 105.1718509197 0.0608754441 0.0323641391 1
104.3099229336 105.1718509197 0.0353360617 0.0418004157 1
107.7581789494 105.1718509197 0.0435029452 0.0320813191 1
111.2064349651 105.1718509197 0.0458727298 0.0412491896 1
114.6546909809 105.1718509197 0.0345383182 0.0321277725 1
118.1029469967 105.1718509197 0.0466925064 0.0229126003 1
121.5512030125 105.1718509197 0.041222714 0.0307408062 1
124.9994590282 105.1718509197 0.046696494 0.0284042947 1
128.447715044 105.1718509197 0.0530373148 0.0309980311 1
131.8959710598 105.1718509197 0.0529025686 0.0311355259 1
135.3442270756 105.1718509197 0 -0 0
-37.0685737133 101.7235949039 0.0834069465 0.081203498 1
-33.6203176975 101.7235949039 0.0842414958 0.0975410329 1
-30.1720616817 101.7235949039 0.0380138306 0.0640440561 1
-26.723805666 101.7235949039 0.0371822332 0.0596868078 1
-23.2755496502 101.7235949039 0.0708481259 0.0618359028 1
-19.8272936344 101.7235949039 4.4392926075 8.6445313192 1
-16.3790376186 101.7235949039 12.9196939338 7.9857415933 1
-12.9307816029 101.7235949039 9.5413526624 11.8450596744 1
-9.4825255871 101.7235949039 12.6084108572 10.9538616756 1
-6.0342695713 101.7235949039 0.5971142769 7.699038725 1
-2.5860135555 101.7235949039 4.8005709012 7.0874397376 1
0.8622424603 101.7235949039 0.0737632972 0.045418157 1
4.310498476 101.7235949039 0.0494100034 0.041506741 1
7.7587544918 101.7235949039 0.0545580988 0.0317633178 1
11.2070105076 101.7235949039 0.0429893223 0.0539140837 1
14.6552665234 101.7235949039 0.0660130755 0.0656103032 1
18.1035225391 101.7235949039 0.0628324849 0.0244100264 1
21.5517785549 101.7235949039 0.0610263011 0.0371445765 1
25.0000345707 101.7235949039 0.072640249 0.0486151421 1
28.4482905865 101.7235949039 0.0518910427 0.0362329743 1
31.8965466022 101.7235949039 0.053713867 0.0445335041 1
35.344802618 101.7235949039 0.0530664051 0.0435819624 1
38.7930586338 101.7235949039 0.0406157187 0.0378693938 1
42.2413146496 101.7235949039 0.0492021061 0.0350407599 1
45.6895706654 101.7235949039 0.0521595879 0.0418778995 1
49.1378266811 101.7235949039 0.0463026334 0.0461535427 1
52.5860826969 101.7235949039 0.0543009274 0.056961293 1
56.0343387127 101.7235949039 0.0565615768 0.0450255221 1
59.4825947285 101.7235949039 0.0700380906 0.0499296986 1
62.9308507442 101.7235949039 0.0676738618 0.0388228195 1
66.37910676 101.7235949039 0.0609622277 0.0417251451 1
69.8273627758 101.7235949039 0.0688230724 0.0336742398 1
73.2756187916 101.7235949039 0.0667751588 0.0303663801 1
76.7238748074 101.7235949039 2.4159231505 10.0852961306 1
80.1721308231 101.7235949039 2.9722447588 7.1390822905 1
83.6203868389 101.7235949039 0.047452406 0.0530137804 1
87.0686428547 101.7235949039 0.0343153485 0.0301910574 1
90.5168988705 101.7235949039 0.0470789058 0.041965609 1
93.9651548862 101.7235949039 0.0383853343 0.0284395455 1
97.413410902 101.7235949039 0.0421438006 0.0317496639 1
100.8616669178 101.7235949039 0.0480813862 0.0345718294 1
104.3099229336 101.7235949039 0.0471112985 0.0373906256 1
107.7581789494 101.7235949039 0.0427991386 0.0401906376 1
111.2064349651 101.7235949039 0.042500042 0.0334925049 1
114.6546909809 101.7235949039 0.0434803875 0.033140995 1
118.1029469967 101.7235949039 0.0431743917 0.0362441768 1
121.5512030125 101.7235949039 0.0255506117 0.0302235651 1
124.9994590282 101.7235949039 0.0345972827 0.0303970118 1
128.447715044 101.7235949039 0.0440310837 0.0263036253 1
131.8959710598 101.7235949039 0.0430547338 0.0274605996 1
135.3442270756 101.7235949039 0 -0 0
-37.0685737133 98.2753388882 0.0866240191 0.0933276246 1
-33.6203176975 98.2753388882 0.065671497 0.0586209606 1
-30.1720616817 98.2753388882 0.0619458676 0.0887834282 1
-26.723805666 98.2753388882 0.047457009 0.0563265643 1
-23.2755496502 98.2753388882 0.075468353 0.0899208957 1
-19.8272936344 98.2753388882 2.670914207 6.7136072317 1
-16.3790376186 98.2753388882 8.1951125152 9.3208323368 1
-12.9307816029 98.2753388882 10.0122227987 12.2372769812 1
-9.4825255871 98.2753388882 9.1424891491 9.2794965082 1
-6.0342695713 98.2753388882 0.4834411763 12.2652032437 1
-2.5860135555 98.2753388882 3.5779497852 12.317460336 1
0.8622424603 98.2753388882 0.0580845766 0.0479822011 1
4.310498476 98.2753388882 0.0493754002 0.0492860903 1
7.7587544918 98.2753388882 0.0542258762 0.040778458 1
11.2070105076 98.2753388882 0.0412042162 0.0412643663 1
14.6552665234 98.2753388882 0.0709981533 0.061525047 1
18.1035225391 98.2753388882 0.0577964898 0.0469112852 1
21.5517785549 98.2753388882 0.060190023 0.0471468062 1
25.0000345707 98.2753388882 0.0715409226 0.0385903012 1
28.4482905865 98.2753388882 0.0500229532 0.0562699254 1
31.8965466022 98.2753388882 0.0595500383 0.0381598517 1
35.344802618 98.2753388882 0.0480676198 0.0377120337 1
38.7930586338 98.2753388882 0.0609807255 0.0433600311 1
42.2413146496 98.2753388882 0.046937635 0.0441044757 1
45.6895706654 98.2753388882 0.0608058524 0.0396542136 1
49.1378266811 98.2753388882 0.0667674514 0.0418709387 1
52.5860826969 98.2753388882 0.0468352438 0.0412411449 1
56.0343387127 98.2753388882 0.0781387597 0.0596833823 1
59.4825947285 98.2753388882 0.0514198776 0.0541386377 1
62.9308507442 98.2753388882 0.040792591 0.0421741165 1
66.37910676 98.2753388882 0.0561804495 0.0419473975 1
69.8273627758 98.2753388882 0.0579706565 0.0464337775 1
73.2756187916 98.2753388882 0.0667679064 0.0575426797 1
76.7238748074 98.2753388882 5.4881984222 11.799008266 1
80.1721308231 98.2753388882 2.5549733223 9.8474789513 1
83.6203868389 98.2753388882 0.0479077173 0.0425738059 1
87.0686428547 98.2753388882 0.03368647 0.0353120911 1
90.5168988705 98.2753388882 0.0347183269 0.0395146207 1
93.9651548862 98.2753388882 0.0358775358 0.0193102524 1
97.413410902 98.2753388882 0.0299838879 0.0215694821 1
100.8616669178 98.2753388882 0.0465355692 0.0249648841 1
104.3099229336 98.2753388882 0.0518285964 0.0293133492 1
107.7581789494 98.2753388882 0.0479439102 0.0356326856 1
111.2064349651 98.2753388882 0.0367555812 0.0222148045 1
114.6546909809 98.2753388882 0.0339809127 0.0414101197 1
118.1029469967 98.2753388882 0.0372620266 0.0223207215 1
121.5512030125 98.2753388882 0.0291716796 0.0396681913 1
124.9994590282 98.2753388882 0.0451709785 0.0401166168 1
128.447715044 98.2753388882 0.0430243483 0.0362257272 1
131.8959710598 98.2753388882 0.047305772 0.0306875607 1
135.3442270756 98.2753388882 0 -0 0
-37.0685737133 94.8270828724 0.0553830298 0.1207911734 1
-33.6203176975 94.8270828724 0.0643005157 0.0870690164 1
-30.1720616817 94.8270828724 0.0626420042 0.0946016207 1
-26.723805666 94.8270828724 0.0473134795 0.0503330704 1
-23.2755496502 94.8270828724 0.0425842644 0.0506969416 1
-19.8272936344 94.8270828724 4.9426524927 4.4885324961 1
-16.3790376186 94.8270828724 7.0324984027 12.166596037 1
-12.9307816029 94.8270828724 8.837187727 11.7096075044 1
-9.4825255871 94.8270828724 10.1633652504 9.0957738736 1
-6.0342695713 94.8270828724 0.4356371829 12.3990467864 1
-2.5860135555 94.8270828724 2.2117997927 12.7760643468 1
0.8622424603 94.8270828724 0.0544079644 0.0352560516 1
4.310498476 94.8270828724 0.042142409 0.0488537782 1
7.7587544918 94.8270828724 0.0556565527 0.0510765114 1
11.2070105076 94.8270828724 0.0295743154 0.0531136345 1
14.6552665234 94.8270828724 0.1024762425 0.0444028015 1
18.1035225391 94.8270828724 0.0474795854 0.0464517936 1
21.5517785549 94.8270828724 0.0609149179 0.037046684 1
25.0000345707 94.8270828724 0.0649529018 0.0278716735 1
28.4482905865 94.8270828724 0.0736972916 0.0406072539 1
31.8965466022 94.8270828724 0.0686166523 0.0414210279 1
35.344802618 94.8270828724 0.0679059251 0.0483879387 1
38.7930586338 94.8270828724 0.0438484791 0.0397634022 1
42.2413146496 94.8270828724 0.0683998004 0.0375602748 1
45.6895706654 94.8270828724 0.0612570103 0.0379302638 1
49.1378266811 94.8270828724 0.065650141 0.0340195891 1
52.5860826969 94.8270828724 0.0569363187 0.0405746151 1
56.0343387127 94.8270828724 0.0531830335 0.0318708339 1
59.4825947285 94.8270828724 0.0662286375 0.0543998823 1
62.9308507442 94.8270828724 0.0412639167 0.0391837416 1
66.37910676 94.8270828724 0.0529247542 0.047031473 1
69.8273627758 94.8270828724 0.045397529 0.0535307619 1
73.2756187916 94.8270828724 0.0557908922 0.0443572233 1
76.7238748074 94.8270828724 2.2234138691 8.0753883077 1
80.1721308231 94.8270828724 2.8190620635 12.4263674158 1
83.6203868389 94.8270828724 0.0698055616 0.0443301697 1
87.0686428547 94.8270828724 0.0298075857 0.0391474524 1
90.5168988705 94.8270828724 0.0450766213 0.0371655953 1
93.9651548862 94.8270828724 0.0339352382 0.0330933668 1
97.413410902 94.8270828724 0.0463733812 0.0355216717 1
100.8616669178 94.8270828724 0.0405814554 0.0273001378 1
104.3099229336 94.8270828724 0.0287317376 0.0344177637 1
107.7581789494 94.8270828724 0.0334141219 0.0289826788 1
111.2064349651 94.8270828724 0.0462667724 0.0351233954 1
114.6546909809 94.8270828724 0.0332632997 0.0301180321 1
118.1029469967 94.8270828724 0.0453018176 0.0359662516 1
121.5512030125 94.8270828724 0.0323627957 0.0522461253 1
124.9994590282 94.8270828724 0.0416359717 0.0287185841 1
128.447715044 94.8270828724 0.0574467115 0.0279639004 1
131.8959710598 94.8270828724 0.0436602598 0.0277829042 1
135.3442270756 94.8270828724 0 -0 0
-37.0685737133 91.3788268566 0.0773265674 0.1022240917 1
-33.6203176975 91.3788268566 0.073669973 0.0859938453 1
-30.1720616817 91.3788268566 0.0509604823 0.0913104926 1
-26.723805666 91.3788268566 0.0505938654 0.0657523769 1
-23.2755496502 91.3788268566 0.0601869989 0.0809582945 1
-19.8272936344 91.3788268566 1.8699149462 0.9824547963 1
-16.3790376186 91.3788268566 10.3542040738 10.0585201599 1
-12.9307816029 91.3788268566 10.1294689803 9.7884776824 1
-9.4825255871 91.3788268566 10.2841856264 10.6604372391 1
-6.0342695713 91.3788268566 0.6798582984 8.7245317509 1
-2.5860135555 91.3788268566 2.3132705683 12.7719523448 1
0.8622424603 91.3788268566 0.0435123466 0.0628631915 1
4.310498476 91.3788268566 0.0709239478 0.0400823669 1
7.7587544918 91.3788268566 0.0478440561 0.0482165553 1
11.2070105076 91.3788268566 0.0609236798 0.032338991 1
14.6552665234 91.3788268566 0.0759363174 0.0320740452 1
18.1035225391 91.3788268566 0.0792914868 0.0536893852 1
21.5517785549 91.3788268566 0.0531778096 0.0538052858 1
25.0000345707 91.3788268566 0.0507979679 0.0535386728 1
28.4482905865 91.3788268566 0.0805938827 0.0439732994 1
31.8965466022 91.3788268566 0.0649922847 0.0522351315 1
35.344802618 91.3788268566 0.0568418598 0.0463906052 1
38.7930586338 91.3788268566 0.0520033625 0.0333303919 1
42.2413146496 91.3788268566 0.0466840497 0.031174799 1
45.6895706654 91.3788268566 0.039462641 0.0396434767 1
49.1378266811 91.3788268566 0.0448946322 0.0342029297 1
52.5860826969 91.3788268566 0.0543313985 0.0381545876 1
56.0343387127 91.3788268566 0.0511297729 0.0416321554 1
59.4825947285 91.3788268566 0.0420438475 0.0432898453 1
62.9308507442 91.3788268566 0.0587466613 0.0458506298 1
66.37910676 91.3788268566 0.0723975986 0.0355078733 1
69.8273627758 91.3788268566 0.0502441512 0.0441158147 1
73.2756187916 91.3788268566 0.0565645902 0.036912299 1
76.7238748074 91.3788268566 0.0803434125 0.0696458678 1
80.1721308231 91.3788268566 4.3599300089 12.0932253694 1
83.6203868389 91.3788268566 0.0689383307 0.0797157436 1
87.0686428547 91.3788268566 0.0227632447 0.0343225073 1
90.5168988705 91.3788268566 0.0474317351 0.0296479161 1
93.9651548862 91.3788268566 0.0251293602 0.0291214742 1
97.413410902 91.3788268566 0.046371176 0.0275541807 1
100.8616669178 91.3788268566 0.0450731477 0.0316273699 1
104.3099229336 91.3788268566 0.0480576323 0.0331409014 1
107.7581789494 91.3788268566 0.0430553627 0.0357134584 1
111.2064349651 91.3788268566 0.038658892 0.0341517609 1
114.6546909809 91.3788268566 0.0340482993 0.0299823411 1
118.1029469967 91.3788268566 0.0421534965 0.0329494037 1
121.5512030125 91.3788268566 0.0513731245 0.044205162 1
124.9994590282 91.3788268566 0.0485582998 0.0451803666 1
128.447715044 91.3788268566 0.042026008 0.0281225826 1
131.8959710598 91.3788268566 0.0538171948 0.0250997669 1
135.3442270756 91.3788268566 0 -0 0
-37.0685737133 87.9305708408 0.0659494892 0.0993611008 1
-33.6203176975 87.9305708408 0.0469128748 0.0686447898 1
-30.1720616817 87.9305708408 0.0521121711 0.1109085079 1
-26.723805666 87.9305708408 0.0396369066 0.0652800289 1
-23.2755496502 87.9305708408 0.0455474493 0.0723158891 1
-19.8272936344 87.9305708408 0.0953590475 0.0912681552 1
-16.3790376186 87.9305708408 7.0229836602 6.7739698049 1
-12.9307816029 87.9305708408 10.0639091983 7.0874870099 1
-9.4825255871 87.9305708408 9.5818581434 12.6067350897 1
-6.0342695713 87.9305708408 0.9932693548 5.8760906592 1
-2.5860135555 87.9305708408 4.7508480134 10.5020285605 1
0.8622424603 87.9305708408 0.0475843583 0.0416436443 1
4.310498476 87.9305708408 0.0556733324 0.0470043257 1
7.7587544918 87.9305708408 0.0480045848 0.0386923525 1
11.2070105076 87.9305708408 0.0534829651 0.0423726686 1
14.6552665234 87.9305708408 0.0622122505 0.0300556688 1
18.1035225391 87.9305708408 0.0470769576 0.037354853 1
21.5517785549 87.9305708408 0.0595967004 0.0344706399 1
25.0000345707 87.9305708408 0.0805746034 0.0464642058 1
28.4482905865 87.9305708408 0.0707333547 0.0485259285 1
31.8965466022 87.9305708408 0.0695833948 0.0513917722 1
35.344802618 87.9305708408 0.0561073895 0.0381344466 1
38.7930586338 87.9305708408 0.0444166 0.0378643572 1
42.2413146496 87.9305708408 0.0411000641 0.0432845491 1
45.6895706654 87.9305708408 0.0463225603 0.0499821573 1
49.1378266811 87.9305708408 0.0505788519 0.0366413426 1
52.5860826969 87.9305708408 0.0525426153 0.036462498 1
56.0343387127 87.9305708408 0.0618574408 0.0401578596 1
59.4825947285 87.9305708408 0.0552777109 0.0579803068 1
62.9308507442 87.9305708408 0.0658023254 0.0328205317 1
66.37910676 87.9305708408 0.0566545049 0.0381564262 1
69.8273627758 87.9305708408 0.0384823998 0.0514697671 1
73.2756187916 87.9305708408 0.0642195555 0.0568238919 1
76.7238748074 87.9305708408 0.048477634 0.049247794 1
80.1721308231 87.9305708408 4.2741431778 10.9292533782 1
83.6203868389 87.9305708408 2.2688628987 0.3156487388 1
87.0686428547 87.9305708408 0.0348655496 0.0415214306 1
90.5168988705 87.9305708408 0.0410006676 0.0415598688 1
93.9651548862 87.9305708408 0.0452062294 0.0367771754 1
97.413410902 87.9305708408 0.0398862528 0.0392234616 1
100.8616669178 87.9305708408 0.0311858517 0.02489913 1
104.3099229336 87.9305708408 0.0313334196 0.0295252447 1
107.7581789494 87.9305708408 0.0417077873 0.0333752663 1
111.2064349651 87.9305708408 0.0414529094 0.0293551914 1
114.6546909809 87.9305708408 0.0433733612 0.0464496313 1
118.1029469967 87.9305708408 0.0363733138 0.0257839489 1
121.5512030125 87.9305708408 0.0380214444 0.0315373562 1
124.9994590282 87.9305708408 0.0442699313 0.0260930036 1
128.447715044 87.9305708408 0.0400309947 0.025758517 1
131.8959710598 87.9305708408 0.044784266 0.0301629466 1
135.3442270756 87.9305708408 0 -0 0
-37.0685737133 84.4823148251 0.0688414739 0.1320446168 1
-33.6203176975 84.4823148251 0.0455843379 0.0760632225 1
-30.1720616817 84.4823148251 0.0580050455 0.0675835456 1
-26.723805666 84.4823148251 0.0417108622 0.0791608191 1
-23.2755496502 84.4823148251 0.0434147298 0.062369086 1
-19.8272936344 84.4823148251 0.0254590885 0.0789765578 1
-16.3790376186 84.4823148251 3.1604712756 6.9080531345 1
-12.9307816029 84.4823148251 9.6378380979 9.5536797622 1
-9.4825255871 84.4823148251 10.9306694908 8.8995932842 1
-6.0342695713 84.4823148251 1.1973504074 7.5933961719 1
-2.5860135555 84.4823148251 5.2882538643 7.0503426555 1
0.8622424603 84.4823148251 0.0508457004 0.0416619468 1
4.310498476 84.4823148251 0.0540317184 0.0350672087 1
7.7587544918 84.4823148251 0.0592299549 0.0297280841 1
11.2070105076 84.4823148251 0.0546801171 0.0427402597 1
14.6552665234 84.4823148251 0.0549299236 0.0511941407 1
18.1035225391 84.4823148251 0.0741887958 0.0476460178 1
21.5517785549 84.4823148251 0.0567557988 0.0438113978 1
25.0000345707 84.4823148251 0.0692043656 0.0346856131 1
28.4482905865 84.4823148251 0.0911510665 0.0388485404 1
31.8965466022 84.4823148251 0.0852562866 0.043380983 1
35.344802618 84.4823148251 0.0658413496 0.044606045 1