TITLE = "B00001"
VARIABLES = "x", "y", "Vx", "Vy", "isValid"
ZONE T="Frame 0", I=51, J=39, F=POINT
-37.0685737133 118.9648749828 0 -0 0
-33.6203176975 118.9648749828 9.6936899378 0.2438474762 1
-30.1720616817 118.9648749828 9.6781065325 0.2874140077 1
-26.723805666 118.9648749828 9.6062615944 0.2356259342 1
-23.2755496502 118.9648749828 -1.2001303078 -0.7769217487 1
-19.8272936344 118.9648749828 -2.9613594631 0.0390803255 1
-16.3790376186 118.9648749828 1.572024822 -5.0945352007 1
-12.9307816029 118.9648749828 0.0446124143 2.8572207162 1
-9.4825255871 118.9648749828 -0.2348793193 4.3021817976 1
-6.0342695713 118.9648749828 1.481362439 0.5285769844 1
-2.5860135555 118.9648749828 9.6208077503 0.3920690671 1
0.8622424603 118.9648749828 9.7007424118 0.371279675 1
4.310498476 118.9648749828 9.7160120389 0.3886388733 1
7.7587544918 118.9648749828 9.7473131301 0.3631601923 1
11.2070105076 118.9648749828 9.7653649698 0.343356153 1
14.6552665234 118.9648749828 9.7834832647 0.3768858917 1
18.1035225391 118.9648749828 9.7864292175 0.3622569666 1
21.5517785549 118.9648749828 9.8291763631 0.3949422275 1
25.0000345707 118.9648749828 9.8138615191 0.3800373762 1
28.4482905865 118.9648749828 9.8180153125 0.3538293578 1
31.8965466022 118.9648749828 9.8436039957 0.3920438466 1
35.344802618 118.9648749828 9.8902692585 0.3394411829 1
38.7930586338 118.9648749828 9.9077168353 0.3649690416 1
42.2413146496 118.9648749828 9.8956096544 0.3101769098 1
45.6895706654 118.9648749828 9.9275451531 0.3446200224 1
49.1378266811 118.9648749828 9.920739317 0.3340800841 1
52.5860826969 118.9648749828 9.9179625852 0.2833295383 1
56.0343387127 118.9648749828 9.8912236102 0.3197759202 1
59.4825947285 118.9648749828 9.8499768453 0.342524692 1
62.9308507442 118.9648749828 9.9388665183 0.2853007361 1
66.37910676 118.9648749828 9.9250863101 0.2936255792 1
69.8273627758 118.9648749828 9.8984035138 0.2555683862 1
73.2756187916 118.9648749828 -0.1299439234 2.1507089526 1
76.7238748074 118.9648749828 4.1310335858 -0.3948654957 1
80.1721308231 118.9648749828 9.8597265789 0.3083586403 1
83.6203868389 118.9648749828 9.9689652497 0.299772344 1
87.0686428547 118.9648749828 9.951791715 0.2987864774 1
90.5168988705 118.9648749828 9.9997353843 0.3035394597 1
93.9651548862 118.9648749828 9.9810765413 0.2997863244 1
97.413410902 118.9648749828 9.9866519282 0.3089714028 1
100.8616669178 118.9648749828 9.9541656049 0.3156214417 1
104.3099229336 118.9648749828 10.0032993021 0.3101736127 1
107.7581789494 118.9648749828 9.9983829864 0.3000470712 1
111.2064349651 118.9648749828 10.003903565 0.3190262652 1
114.6546909809 118.9648749828 10.0215052905 0.319520376 1
118.1029469967 118.9648749828 10.0130538314 0.3241234486 1
121.5512030125 118.9648749828 10.0073400532 0.3426063694 1
124.9994590282 118.9648749828 10.0312474879 0.324071659 1
128.447715044 118.9648749828 10.0290935168 0.3318752867 1
131.8959710598 118.9648749828 10.040232644 0.3227295377 1
135.3442270756 118.9648749828 0 -0 0
-37.0685737133 115.5166189671 9.6235557076 0.263575897 1
-33.6203176975 115.5166189671 9.59920638 0.2877271008 1
-30.1720616817 115.5166189671 9.6261830865 0.2760333167 1
-26.723805666 115.5166189671 9.6161750682 0.2855713527 1
-23.2755496502 115.5166189671 1.5830558738 -1.9419380117 1
-19.8272936344 115.5166189671 0.8560327424 0.8390769855 1
-16.3790376186 115.5166189671 -0.7105591517 5.1947787814 1
-12.9307816029 115.5166189671 -1.5928650403 5.3618797336 1
-9.4825255871 115.5166189671 -0.2963540753 0.8707597661 1
-6.0342695713 115.5166189671 1.0999787881 -2.3417327544 1
-2.5860135555 115.5166189671 9.6441712114 0.3905097674 1
0.8622424603 115.5166189671 9.6961748147 0.3726511274 1
4.310498476 115.5166189671 9.7182262992 0.3796741419 1
7.7587544918 115.5166189671 9.7372098821 0.3812488993 1
11.2070105076 115.5166189671 9.7582494661 0.3871084765 1
14.6552665234 115.5166189671 9.752321935 0.3787660776 1
18.1035225391 115.5166189671 9.7910406613 0.3963509752 1
21.5517785549 115.5166189671 9.8002306639 0.3776555219 1
25.0000345707 115.5166189671 9.8360075481 0.3698672448 1
28.4482905865 115.5166189671 9.8233152872 0.3683144108 1
31.8965466022 115.5166189671 9.8884064572 0.3532757927 1
35.344802618 115.5166189671 9.8879289388 0.3367825676 1
38.7930586338 115.5166189671 9.8983062288 0.3341654653 1
42.2413146496 115.5166189671 9.8997826308 0.3494815296 1
45.6895706654 115.5166189671 9.9037493905 0.3515391792 1
49.1378266811 115.5166189671 9.8958638284 0.3225178401 1
52.5860826969 115.5166189671 9.9357787487 0.3203156334 1
56.0343387127 115.5166189671 9.9418535774 0.3190390253 1
59.4825947285 115.5166189671 9.9042440365 0.306354429 1
62.9308507442 115.5166189671 9.9561894059 0.3044917561 1
66.37910676 115.5166189671 9.9230693601 0.3228087316 1
69.8273627758 115.5166189671 9.9079853966 0.3196875417 1
73.2756187916 115.5166189671 0.6752828226 -2.4111947249 1
76.7238748074 115.5166189671 2.3768933863 1.7609093825 1
80.1721308231 115.5166189671 8.1826634667 0.3688245145 1
83.6203868389 115.5166189671 9.9492492892 0.2944624995 1
87.0686428547 115.5166189671 9.9514217581 0.290456282 1
90.5168988705 115.5166189671 9.954459515 0.3024434411 1
93.9651548862 115.5166189671 9.9956405099 0.3197095935 1
97.413410902 115.5166189671 9.9728936435 0.2929156816 1
100.8616669178 115.5166189671 9.9767795608 0.3131384702 1
104.3099229336 115.5166189671 9.9584495683 0.3143134258 1
107.7581789494 115.5166189671 9.9939126743 0.3124422747 1
111.2064349651 115.5166189671 10.0100092234 0.3210900807 1
114.6546909809 115.5166189671 9.9894752472 0.3338722402 1
118.1029469967 115.5166189671 10.0167479192 0.3322821108 1
121.5512030125 115.5166189671 9.9901089696 0.3332718097 1
124.9994590282 115.5166189671 10.0207229002 0.3328682826 1
128.447715044 115.5166189671 10.0101352828 0.3402367187 1
131.8959710598 115.5166189671 10.0226432504 0.3323019789 1
135.3442270756 115.5166189671 0 -0 0
-37.0685737133 112.0683629513 9.629153018 0.2399434678 1
-33.6203176975 112.0683629513 9.6000922211 0.2779036542 1
-30.1720616817 112.0683629513 9.6237475371 0.2546407536 1
-26.723805666 112.0683629513 9.6176329723 0.2913599359 1
-23.2755496502 112.0683629513 1.1265926457 1.6648130867 1
-19.8272936344 112.0683629513 3.2889137907 1.5904812164 1
-16.3790376186 112.0683629513 -1.8498679086 -0.2306035771 1
-12.9307816029 112.0683629513 -1.0986273323 0.7817686975 1
-9.4825255871 112.0683629513 -0.4935514894 -0.8505429079 1
-6.0342695713 112.0683629513 0.1484890389 -0.1136127899 1
-2.5860135555 112.0683629513 9.6306273646 0.3888379392 1
0.8622424603 112.0683629513 9.6857920438 0.3977421244 1
4.310498476 112.0683629513 9.7211359414 0.3876867054 1
7.7587544918 112.0683629513 9.7285021937 0.4000413378 1
11.2070105076 112.0683629513 9.7458278218 0.4058007612 1
14.6552665234 112.0683629513 9.7783840259 0.4081842425 1
18.1035225391 112.0683629513 9.7974703746 0.376568688 1
21.5517785549 112.0683629513 9.7934762107 0.3933737645 1
25.0000345707 112.0683629513 9.837679205 0.3961821396 1
28.4482905865 112.0683629513 9.8432271878 0.3891697014 1
31.8965466022 112.0683629513 9.8656061526 0.3645936039 1
35.344802618 112.0683629513 9.8896307404 0.3635135782 1
38.7930586338 112.0683629513 9.8910310956 0.3624530352 1
42.2413146496 112.0683629513 9.9471151862 0.3364106838 1
45.6895706654 112.0683629513 9.9213113799 0.3374535426 1
49.1378266811 112.0683629513 9.9248136382 0.3232136288 1
52.5860826969 112.0683629513 9.9140088425 0.3116691976 1
56.0343387127 112.0683629513 9.9359911313 0.3278105569 1
59.4825947285 112.0683629513 9.9472905731 0.3124579037 1
62.9308507442 112.0683629513 9.9629890761 0.3093636898 1
66.37910676 112.0683629513 9.9401654779 0.3198838886 1
69.8273627758 112.0683629513 9.9528885686 0.3032000757 1
73.2756187916 112.0683629513 3.3964294217 3.6515979205 1
76.7238748074 112.0683629513 -0.0722496962 -0.5412475788 1
80.1721308231 112.0683629513 4.30322213 0.0407821271 1
83.6203868389 112.0683629513 9.9370646913 0.2863098963 1
87.0686428547 112.0683629513 9.9599403575 0.3023882259 1
90.5168988705 112.0683629513 9.94320392 0.3181275569 1
93.9651548862 112.0683629513 9.9589935419 0.302967825 1
97.413410902 112.0683629513 9.9546787487 0.3257064701 1
100.8616669178 112.0683629513 9.9613585255 0.3115786353 1
104.3099229336 112.0683629513 9.9724387336 0.3150804868 1
107.7581789494 112.0683629513 9.989447843 0.3202606965 1
111.2064349651 112.0683629513 9.9537339885 0.3383824169 1
114.6546909809 112.0683629513 10.0124488834 0.3482743741 1
118.1029469967 112.0683629513 10.0080292691 0.3364716582 1
121.5512030125 112.0683629513 9.9982459653 0.3321623458 1
124.9994590282 112.0683629513 10.0088513955 0.3551943445 1
128.447715044 112.0683629513 10.0188340649 0.3462822377 1
131.8959710598 112.0683629513 10.0202385308 0.3449888874 1
135.3442270756 112.0683629513 0 -0 0
-37.0685737133 108.6201069355 9.6135819446 0.2250400938 1
-33.6203176975 108.6201069355 9.6320585496 0.2094317678 1
-30.1720616817 108.6201069355 9.634995596 0.2518100484 1
-26.723805666 108.6201069355 9.6129831626 0.2991468428 1
-23.2755496502 108.6201069355 6.4544469669 -0.1047119017 1
-19.8272936344 108.6201069355 0.1465962321 -2.7899533092 1
-16.3790376186 108.6201069355 0.0256156753 0.922166814 1
-12.9307816029 108.6201069355 0.8274936532 1.3040887863 1
-9.4825255871 108.6201069355 1.1710144456 -1.2149383451 1
-6.0342695713 108.6201069355 -0.0956912593 2.5859447066 1
-2.5860135555 108.6201069355 9.5398461158 0.3907262607 1
0.8622424603 108.6201069355 9.6783545406 0.4112481619 1
4.310498476 108.6201069355 9.7369008996 0.4115715316 1
7.7587544918 108.6201069355 9.7177981084 0.4235755186 1
11.2070105076 108.6201069355 9.7783038686 0.3850328643 1
14.6552665234 108.6201069355 9.7965091719 0.415535294 1
18.1035225391 108.6201069355 9.8074674312 0.4289986838 1
21.5517785549 108.6201069355 9.8313255384 0.3892591505 1
25.0000345707 108.6201069355 9.8286193725 0.3875957148 1
28.4482905865 108.6201069355 9.8179899636 0.4002846786 1
31.8965466022 108.6201069355 9.8818842547 0.379440521 1
35.344802618 108.6201069355 9.9006910804 0.3735355983 1
38.7930586338 108.6201069355 9.9254151607 0.3358478056 1
42.2413146496 108.6201069355 9.9109505324 0.3625625236 1
45.6895706654 108.6201069355 9.9251054931 0.3391250711 1
49.1378266811 108.6201069355 9.946411583 0.3583310349 1
52.5860826969 108.6201069355 9.9541909537 0.3350337506 1
56.0343387127 108.6201069355 9.947998972 0.3410610502 1
59.4825947285 108.6201069355 9.9510216566 0.3036044163 1
62.9308507442 108.6201069355 9.9641290913 0.3296578792 1
66.37910676 108.6201069355 9.9661707051 0.2998886834 1
69.8273627758 108.6201069355 9.9461395962 0.3103936814 1
73.2756187916 108.6201069355 8.6061626817 -0.5966765802 1
76.7238748074 108.6201069355 0.4319931506 -2.0897407463 1
80.1721308231 108.6201069355 1.4025939123 2.0178670338 1
83.6203868389 108.6201069355 9.9158072439 0.2950227872 1
87.0686428547 108.6201069355 9.9448200834 0.3022269478 1
90.5168988705 108.6201069355 9.959677277 0.3012114719 1
93.9651548862 108.6201069355 9.9452496444 0.2965718103 1
97.413410902 108.6201069355 9.9628801443 0.2982674459 1
100.8616669178 108.6201069355 9.9857791041 0.3204715804 1
104.3099229336 108.6201069355 9.9846767696 0.3232567904 1
107.7581789494 108.6201069355 9.9573061276 0.3217831289 1
111.2064349651 108.6201069355 9.9861661886 0.3290103048 1
114.6546909809 108.6201069355 9.9966291168 0.3485073099 1
118.1029469967 108.6201069355 9.9677176729 0.3450189036 1
121.5512030125 108.6201069355 9.9838875283 0.3427513334 1
124.9994590282 108.6201069355 10.0103990484 0.3601939861 1
128.447715044 108.6201069355 10.0318805252 0.3585471214 1
131.8959710598 108.6201069355 10.0037336588 0.3460494304 1
135.3442270756 108.6201069355 0 -0 0
-37.0685737133 105.1718509197 9.5801323631 0.2073036808 1
-33.6203176975 105.1718509197 9.6186962557 0.2091925162 1
-30.1720616817 105.1718509197 9.6184879837 0.2490785335 1
-26.723805666 105.1718509197 9.6161291661 0.2798599081 1
-23.2755496502 105.1718509197 9.501904984 0.270108526 1
-19.8272936344 105.1718509197 1.0243134459 -3.5143161767 1
-16.3790376186 105.1718509197 -2.495045791 0.2336976411 1
-12.9307816029 105.1718509197 0.0930319588 1.6681471517 1
-9.4825255871 105.1718509197 -2.3702774957 2.2555168761 1
-6.0342695713 105.1718509197 0.2948794717 -1.0592592973 1
-2.5860135555 105.1718509197 9.5958658065 0.4132282447 1
0.8622424603 105.1718509197 9.6830262737 0.4138699315 1
4.310498476 105.1718509197 9.7010253603 0.4364581103 1
7.7587544918 105.1718509197 9.731301534 0.3960741927 1
11.2070105076 105.1718509197 9.7510448987 0.4183287253 1
14.6552665234 105.1718509197 9.786451826 0.4425032226 1
18.1035225391 105.1718509197 9.7817732419 0.4145103765 1
21.5517785549 105.1718509197 9.8315536785 0.4273693749 1
25.0000345707 105.1718509197 9.8796583475 0.4044575266 1
28.4482905865 105.1718509197 9.8608453558 0.3929019839 1
31.8965466022 105.1718509197 9.9011617478 0.3942559232 1
35.344802618 105.1718509197 9.919269081 0.3730035284 1
38.7930586338 105.1718509197 9.9425222402 0.3706030479 1
42.2413146496 105.1718509197 9.9509312227 0.346394595 1
45.6895706654 105.1718509197 9.9224006973 0.3265244858 1
49.1378266811 105.1718509197 9.9603240164 0.3229531603 1
52.5860826969 105.1718509197 9.9716344199 0.3213642727 1
56.0343387127 105.1718509197 9.9242765157 0.3037192356 1
59.4825947285 105.1718509197 9.9556365259 0.3133319482 1
62.9308507442 105.1718509197 9.9717940495 0.2869596544 1
66.37910676 105.1718509197 9.9711521058 0.2976644248 1
69.8273627758 105.1718509197 9.9919834177 0.2952384669 1
73.2756187916 105.1718509197 9.9356561148 0.2899715058 1
76.7238748074 105.1718509197 -0.3510537179 1.4340279996 1
80.1721308231 105.1718509197 0.1465645781 0.1846697284 1
83.6203868389 105.1718509197 9.9442137652 0.298886096 1
87.0686428547 105.1718509197 9.9514930091 0.300032684 1
90.5168988705 105.1718509197 9.937368193 0.3166179916 1
93.9651548862 105.1718509197 9.9377669243 0.2891299182 1
97.413410902 105.1718509197 9.9546307914 0.2981353491 1
100.8616669178 105.1718509197 9.9634535775 0.3185691715 1
104.3099229336 105.1718509197 9.9454181803 0.3087443546 1
107.7581789494 105.1718509197 9.9746331259 0.3356213141 1
111.2064349651 105.1718509197 9.9617675333 0.3450461579 1
114.6546909809 105.1718509197 9.9894862089 0.3543912726 1
118.1029469967 105.1718509197 9.9931583733 0.346738368 1
121.5512030125 105.1718509197 9.9963263003 0.3577854127 1
124.9994590282 105.1718509197 10.0005136639 0.3496329379 1
128.447715044 105.1718509197 10.0248883405 0.3628534364 1
131.8959710598 105.1718509197 10.0203926795 0.3701186785 1
135.3442270756 105.1718509197 0 -0 0
-37.0685737133 101.7235949039 9.5845005946 0.183448464 1
-33.6203176975 101.7235949039 9.6336932108 0.2074324806 1
-30.1720616817 101.7235949039 9.5944524342 0.2883565841 1
-26.723805666 101.7235949039 9.5959754233 0.2896245642 1
-23.2755496502 101.7235949039 9.5494232029 0.3013955083 1
-19.8272936344 101.7235949039 0.8860784638 -0.8537859395 1
-16.3790376186 101.7235949039 0.9006036383 -0.2328845495 1
-12.9307816029 101.7235949039 -3.4360613934 1.23536613 1
-9.4825255871 101.7235949039 1.1825169355 -3.3410366024 1
-6.0342695713 101.7235949039 0.0750698679 1.6489809882 1
-2.5860135555 101.7235949039 5.421039947 1.0971091389 1
0.8622424603 101.7235949039 9.6682739012 0.4363423275 1
4.310498476 101.7235949039 9.7154112015 0.4462774678 1
7.7587544918 101.7235949039 9.7183557841 0.4327410287 1
11.2070105076 101.7235949039 9.7442513945 0.4453603687 1
14.6552665234 101.7235949039 9.793855759 0.4287305507 1
18.1035225391 101.7235949039 9.8131181798 0.4235878505 1
21.5517785549 101.7235949039 9.8276150081 0.4289590761 1
25.0000345707 101.7235949039 9.8881043257 0.402440705 1
28.4482905865 101.7235949039 9.896771593 0.393259095 1
31.8965466022 101.7235949039 9.8982130545 0.3898224355 1
35.344802618 101.7235949039 9.9261050617 0.385349383 1
38.7930586338 101.7235949039 9.9849371097 0.3600853112 1
42.2413146496 101.7235949039 9.9566285584 0.3627121334 1
45.6895706654 101.7235949039 9.9545732425 0.3512895226 1
49.1378266811 101.7235949039 9.9447296495 0.3443849028 1
52.5860826969 101.7235949039 9.9984597182 0.2956325309 1
56.0343387127 101.7235949039 9.9617140951 0.3142883552 1
59.4825947285 101.7235949039 9.971693339 0.2827885834 1
62.9308507442 101.7235949039 9.9770638795 0.2887070797 1
66.37910676 101.7235949039 9.9639269853 0.2933080971 1
69.8273627758 101.7235949039 9.9696798145 0.2818597305 1
73.2756187916 101.7235949039 9.9292092739 0.2839217476 1
76.7238748074 101.7235949039 -0.5169963497 1.834516754 1
80.1721308231 101.7235949039 0.2586849302 0.8706926257 1
83.6203868389 101.7235949039 9.9057656554 0.2857012444 1
87.0686428547 101.7235949039 9.9471864371 0.2790348915 1
90.5168988705 101.7235949039 9.9430408649 0.2821813018 1
93.9651548862 101.7235949039 9.9239880863 0.3083561782 1
97.413410902 101.7235949039 9.9534928314 0.2810116986 1
100.8616669178 101.7235949039 9.9354697662 0.3141311878 1
104.3099229336 101.7235949039 9.9828173938 0.3302056851 1
107.7581789494 101.7235949039 9.9452722529 0.3088401195 1
111.2064349651 101.7235949039 9.9897520298 0.34858432 1
114.6546909809 101.7235949039 9.9669489848 0.3341787392 1
118.1029469967 101.7235949039 9.9795487564 0.339243316 1
121.5512030125 101.7235949039 9.9867636004 0.3500094675 1
124.9994590282 101.7235949039 9.999453806 0.3652704879 1
128.447715044 101.7235949039 10.0000875284 0.3476180432 1
131.8959710598 101.7235949039 10.0371126744 0.356751182 1
135.3442270756 101.7235949039 0 -0 0
-37.0685737133 98.2753388882 9.5670756262 0.1929822395 1
-33.6203176975 98.2753388882 9.6170567987 0.2187539957 1
-30.1720616817 98.2753388882 9.6039774533 0.2519539205 1
-26.723805666 98.2753388882 9.5792389858 0.2596777977 1
-23.2755496502 98.2753388882 9.5710512923 0.2518623947 1
-19.8272936344 98.2753388882 0.5979505764 0.8761211433 1
-16.3790376186 98.2753388882 2.3568153477 -0.2067451916 1
-12.9307816029 98.2753388882 -3.5946341547 -3.5828784328 1
-9.4825255871 98.2753388882 -1.9432136778 -2.218365842 1
-6.0342695713 98.2753388882 -0.1630047718 -5.9563411543 1
-2.5860135555 98.2753388882 1.2932032338 -5.9050178605 1
0.8622424603 98.2753388882 9.6296428683 0.4466829216 1
4.310498476 98.2753388882 9.7023551497 0.4682474247 1
7.7587544918 98.2753388882 9.7286686743 0.4565438992 1
11.2070105076 98.2753388882 9.765216987 0.4548141368 1
14.6552665234 98.2753388882 9.7718035894 0.4507347629 1
18.1035225391 98.2753388882 9.8202323133 0.4383839413 1
21.5517785549 98.2753388882 9.8642811589 0.4370917043 1
25.0000345707 98.2753388882 9.9046057721 0.4512873431 1
28.4482905865 98.2753388882 9.8905967388 0.420353083 1
31.8965466022 98.2753388882 9.9366577388 0.4046466157 1
35.344802618 98.2753388882 9.9348942777 0.3728319952 1
38.7930586338 98.2753388882 9.9614181296 0.3703070824 1
42.2413146496 98.2753388882 10.0000402561 0.3610872349 1
45.6895706654 98.2753388882 9.9898328722 0.3380834327 1
49.1378266811 98.2753388882 9.9719235344 0.3381324819 1
52.5860826969 98.2753388882 9.9746125727 0.2862834555 1
56.0343387127 98.2753388882 9.9925691828 0.3058659489 1
59.4825947285 98.2753388882 9.9551206416 0.2715694488 1
62.9308507442 98.2753388882 9.9809614436 0.2877461553 1
66.37910676 98.2753388882 9.9728717201 0.2914764038 1
69.8273627758 98.2753388882 9.9858387082 0.261147477 1
73.2756187916 98.2753388882 9.9508380484 0.2557789919 1
76.7238748074 98.2753388882 1.3450621943 2.3730612498 1
80.1721308231 98.2753388882 -0.7499061624 1.4586309875 1
83.6203868389 98.2753388882 9.8805736482 0.2551680278 1
87.0686428547 98.2753388882 9.9307363736 0.2778088313 1
90.5168988705 98.2753388882 9.9563504057 0.289335043 1
93.9651548862 98.2753388882 9.9329417276 0.2897624202 1
97.413410902 98.2753388882 9.9297333794 0.3026200484 1
100.8616669178 98.2753388882 9.927895927 0.3115684871 1
104.3099229336 98.2753388882 9.9385431486 0.3039495809 1
107.7581789494 98.2753388882 9.9411116084 0.319024638 1
111.2064349651 98.2753388882 9.966801002 0.3468383934 1
114.6546909809 98.2753388882 9.9748023469 0.3453174596 1
118.1029469967 98.2753388882 9.9528221133 0.347454303 1
121.5512030125 98.2753388882 9.9936516492 0.3365607219 1
124.9994590282 98.2753388882 10.0044817938 0.3555125117 1
128.447715044 98.2753388882 10.0042653006 0.3458104571 1
131.8959710598 98.2753388882 10.0081299796 0.3542945443 1
135.3442270756 98.2753388882 0 -0 0
-37.0685737133 94.8270828724 9.5627272628 0.1841216442 1
-33.6203176975 94.8270828724 9.6115800669 0.1932730025 1
-30.1720616817 94.8270828724 9.5674627107 0.2083952035 1
-26.723805666 94.8270828724 9.5303169861 0.2671822914 1
-23.2755496502 94.8270828724 9.5188825786 0.2872097178 1
-19.8272936344 94.8270828724 3.5063251084 3.2057653002 1
-16.3790376186 94.8270828724 1.4795034058 0.3868285253 1
-12.9307816029 94.8270828724 -7.2711061935 0.0167084847 1
-9.4825255871 94.8270828724 -0.7589641966 -1.751946321 1
-6.0342695713 94.8270828724 -0.0112035271 -0.5145705202 1
-2.5860135555 94.8270828724 0.4966591271 -1.4925539767 1
0.8622424603 94.8270828724 9.6386663903 0.4774569956 1
4.310498476 94.8270828724 9.6954773775 0.4638311074 1
7.7587544918 94.8270828724 9.734697601 0.4877042869 1
11.2070105076 94.8270828724 9.7588242694 0.472982059 1
14.6552665234 94.8270828724 9.8042515469 0.4608300465 1
18.1035225391 94.8270828724 9.8288913593 0.449542123 1
21.5517785549 94.8270828724 9.8661103901 0.4597305809 1
25.0000345707 94.8270828724 9.8946525623 0.4539392573 1
28.4482905865 94.8270828724 9.9394714663 0.4193111663 1
31.8965466022 94.8270828724 9.9668647168 0.4119083465 1
35.344802618 94.8270828724 9.9407944046 0.3824873127 1
38.7930586338 94.8270828724 10.0187443161 0.370896273 1
42.2413146496 94.8270828724 10.0185017888 0.3458965235 1
45.6895706654 94.8270828724 9.9976759577 0.3188277345 1
49.1378266811 94.8270828724 10.0090014335 0.3131356013 1
52.5860826969 94.8270828724 9.999336653 0.3139481362 1
56.0343387127 94.8270828724 9.9853913345 0.2751425299 1
59.4825947285 94.8270828724 9.9968826058 0.2775564342 1
62.9308507442 94.8270828724 10.0157915122 0.2733776986 1
66.37910676 94.8270828724 9.9869568001 0.2719129435 1
69.8273627758 94.8270828724 9.9591750948 0.2412779245 1
73.2756187916 94.8270828724 9.9266682183 0.2611051504 1
76.7238748074 94.8270828724 9.2740937677 -1.6172350924 1
80.1721308231 94.8270828724 0.650128068 -2.2928657344 1
83.6203868389 94.8270828724 9.8200672029 0.2374303731 1
87.0686428547 94.8270828724 9.9032013063 0.2791165689 1
90.5168988705 94.8270828724 9.9422495683 0.2773925656 1
93.9651548862 94.8270828724 9.9332143995 0.2784426822 1
97.413410902 94.8270828724 9.9047249805 0.3036838885 1
100.8616669178 94.8270828724 9.9305356377 0.2954759201 1
104.3099229336 94.8270828724 9.9240463203 0.317947781 1
107.7581789494 94.8270828724 9.9262811338 0.328445778 1
111.2064349651 94.8270828724 9.935423179 0.3338546844 1
114.6546909809 94.8270828724 9.9753230269 0.3450927451 1
118.1029469967 94.8270828724 9.9554967645 0.3520690439 1
121.5512030125 94.8270828724 9.9960687007 0.3468759457 1
124.9994590282 94.8270828724 9.9702827072 0.3447051253 1
128.447715044 94.8270828724 10.0285180284 0.3569010917 1
131.8959710598 94.8270828724 9.9977800937 0.3585258831 1
135.3442270756 94.8270828724 0 -0 0
-37.0685737133 91.3788268566 9.5271093231 0.1460499248 1
-33.6203176975 91.3788268566 9.5779366006 0.1845048963 1
-30.1720616817 91.3788268566 9.5260110993 0.1987271258 1
-26.723805666 91.3788268566 9.5601642839 0.2307882772 1
-23.2755496502 91.3788268566 9.5007094752 0.2759991899 1
-19.8272936344 91.3788268566 8.9767244948 0.0442039524 1
-16.3790376186 91.3788268566 -4.0929061053 1.0544519134 1
-12.9307816029 91.3788268566 3.591292211 1.016256008 1
-9.4825255871 91.3788268566 -0.3633203785 -4.4871280302 1
-6.0342695713 91.3788268566 -0.02004303 -0.2768137801 1
-2.5860135555 91.3788268566 0.278463792 -4.8750514394 1
0.8622424603 91.3788268566 9.653016606 0.4894744278 1
4.310498476 91.3788268566 9.6893052638 0.5001794979 1
7.7587544918 91.3788268566 9.7382512422 0.5366717605 1
11.2070105076 91.3788268566 9.7801755763 0.4954419947 1
14.6552665234 91.3788268566 9.8203302834 0.4851844696 1
18.1035225391 91.3788268566 9.8547335314 0.4938659528 1
21.5517785549 91.3788268566 9.88406563 0.4541104052 1
25.0000345707 91.3788268566 9.950725006 0.4529964239 1
28.4482905865 91.3788268566 9.9614873253 0.4387532131 1
31.8965466022 91.3788268566 9.9997490864 0.4023712525 1
35.344802618 91.3788268566 9.9795816415 0.375726822 1
38.7930586338 91.3788268566 10.0111862344 0.3616604968 1
42.2413146496 91.3788268566 10.0269765414 0.3484730546 1
45.6895706654 91.3788268566 9.9963420577 0.3263701873 1
49.1378266811 91.3788268566 10.0081210732 0.3163740941 1
52.5860826969 91.3788268566 10.0386781401 0.2931339519 1
56.0343387127 91.3788268566 9.9836977542 0.285831286 1
59.4825947285 91.3788268566 10.0019695127 0.2512136 1
62.9308507442 91.3788268566 10.0064617482 0.2598535914 1
66.37910676 91.3788268566 10.0099564703 0.2550013973 1
69.8273627758 91.3788268566 9.9690604793 0.2405798022 1
73.2756187916 91.3788268566 9.9849734202 0.2562097946 1
76.7238748074 91.3788268566 9.9557899895 0.2626038825 1
80.1721308231 91.3788268566 -0.4656125097 1.8247701033 1
83.6203868389 91.3788268566 9.8249931101 0.268423852 1
87.0686428547 91.3788268566 9.9054621538 0.2617927178 1
90.5168988705 91.3788268566 9.9318181549 0.2625437217 1
93.9651548862 91.3788268566 9.9153865892 0.2768862728 1
97.413410902 91.3788268566 9.9071653256 0.3044479094 1
100.8616669178 91.3788268566 9.8968298269 0.3105097211 1
104.3099229336 91.3788268566 9.9016310449 0.3118066255 1
107.7581789494 91.3788268566 9.9312515728 0.3192396112 1
111.2064349651 91.3788268566 9.9336247776 0.3410633624 1
114.6546909809 91.3788268566 9.9431655541 0.3583502178 1
118.1029469967 91.3788268566 9.9698538313 0.3569242354 1
121.5512030125 91.3788268566 9.9711027782 0.3363734098 1
124.9994590282 91.3788268566 9.9970490864 0.3506359321 1
128.447715044 91.3788268566 9.9810395456 0.3701973371 1
131.8959710598 91.3788268566 9.9948731919 0.3595205276 1
135.3442270756 91.3788268566 0 -0 0
-37.0685737133 87.9305708408 9.5111813098 0.0886127513 1
-33.6203176975 87.9305708408 9.5091753215 0.1687833674 1
-30.1720616817 87.9305708408 9.4828097289 0.1865965228 1
-26.723805666 87.9305708408 9.4841134843 0.2446231438 1
-23.2755496502 87.9305708408 9.4757826038 0.2643755648 1
-19.8272936344 87.9305708408 9.4048255622 0.2661442284 1
-16.3790376186 87.9305708408 1.3765857734 0.0163993657 1
-12.9307816029 87.9305708408 1.339719058 -1.6438838048 1
-9.4825255871 87.9305708408 -1.1903312466 2.6069001938 1
-6.0342695713 87.9305708408 0.0731048468 -0.5471755381 1
-2.5860135555 87.9305708408 3.1320346097 -2.178516178 1
0.8622424603 87.9305708408 9.6297106937 0.532268032 1
4.310498476 87.9305708408 9.6897361951 0.5486187553 1
7.7587544918 87.9305708408 9.7226925007 0.5418428069 1
11.2070105076 87.9305708408 9.7948608085 0.5244501669 1
14.6552665234 87.9305708408 9.8170986416 0.5382558524 1
18.1035225391 87.9305708408 9.8562907758 0.5360070799 1
21.5517785549 87.9305708408 9.937810771 0.493121543 1
25.0000345707 87.9305708408 9.946275247 0.4898389038 1
28.4482905865 87.9305708408 10.0001841282 0.4512169486 1
31.8965466022 87.9305708408 10.0301951662 0.408239051 1
35.344802618 87.9305708408 10.044708437 0.4001315148 1
38.7930586338 87.9305708408 10.0294668992 0.3604976162 1
42.2413146496 87.9305708408 10.0688186629 0.3604497873 1
45.6895706654 87.9305708408 10.0445631946 0.3165387977 1
49.1378266811 87.9305708408 10.0528481731 0.304235805 1
52.5860826969 87.9305708408 10.0763260468 0.2737158837 1
56.0343387127 87.9305708408 10.030044443 0.2700315159 1
59.4825947285 87.9305708408 10.020181667 0.2282018548 1
62.9308507442 87.9305708408 10.009798211 0.2441797523 1
66.37910676 87.9305708408 10.002674486 0.2083188785 1
69.8273627758 87.9305708408 9.9708602509 0.2268019277 1
73.2756187916 87.9305708408 9.9875583226 0.2423759984 1
76.7238748074 87.9305708408 9.9199048587 0.2107826456 1
80.1721308231 87.9305708408 1.6267539455 -1.1097219276 1
83.6203868389 87.9305708408 9.2469834657 0.2639454471 1
87.0686428547 87.9305708408 9.8978054169 0.225078738 1
90.5168988705 87.9305708408 9.9231748663 0.2691730789 1
93.9651548862 87.9305708408 9.8944278477 0.2849076142 1
97.413410902 87.9305708408 9.8880851428 0.2934910202 1
100.8616669178 87.9305708408 9.8869485531 0.3013593262 1
104.3099229336 87.9305708408 9.9175439858 0.3213900283 1
107.7581789494 87.9305708408 9.9237243208 0.3349419465 1
111.2064349651 87.9305708408 9.9223239656 0.3346681827 1
114.6546909809 87.9305708408 9.9528186878 0.3410840655 1
118.1029469967 87.9305708408 9.9685713141 0.3516692208 1
121.5512030125 87.9305708408 9.9599951659 0.3539590996 1
124.9994590282 87.9305708408 9.9877131564 0.3561326818 1
128.447715044 87.9305708408 9.9845472847 0.3644916517 1
131.8959710598 87.9305708408 9.9926404337 0.3721504439 1
135.3442270756 87.9305708408 0 -0 0
-37.0685737133 84.4823148251 9.4796411169 0.0408851658 1
-33.6203176975 84.4823148251 9.5014863847 0.0765587356 1
-30.1720616817 84.4823148251 9.4588289879 0.1461595417 1
-26.723805666 84.4823148251 9.4697029793 0.1884002552 1
-23.2755496502 84.4823148251 9.4552184829 0.2461138045 1
-19.8272936344 84.4823148251 9.4040075464 0.3004464876 1
-16.3790376186 84.4823148251 -0.9043254729 1.1388702466 1
-12.9307816029 84.4823148251 4.388191973 -1.4442585059 1
-9.4825255871 84.4823148251 -1.528803241 -2.7071845383 1
-6.0342695713 84.4823148251 -0.0935555185 -3.0973891769 1
-2.5860135555 84.4823148251 5.6928040942 -1.3410578394 1
0.8622424603 84.4823148251 9.6067473341 0.5609886313 1
4.310498476 84.4823148251 9.6783415236 0.567744155 1
7.7587544918 84.4823148251 9.7379073193 0.5743009125 1
11.2070105076 84.4823148251 9.8012939473 0.5802758443 1
14.6552665234 84.4823148251 9.8499069645 0.5542942961 1
18.1035225391 84.4823148251 9.8928219609 0.5312637961 1
21.5517785549 84.4823148251 9.9469110248 0.5114915285 1
25.0000345707 84.4823148251 9.9819171655 0.4861575761 1
28.4482905865 84.4823148251 10.0437027024 0.4593352751 1